<?xml version="1.0"?>
<VTKFile type="UnstructuredGrid"  version="0.1"  >
<UnstructuredGrid>
<Piece  NumberOfPoints="4820" NumberOfCells="9262">
<Points>
<DataArray  type="Float64"  NumberOfComponents="3"  format="ascii">0.004357787137382907 0.04980973490458728 0  3.061616997868383e-18 0.05 0  -0.004357787137382901 0.04980973490458728 0  -0.004357787137382912 -0.04980973490458728 0  -9.184850993605149e-18 -0.05 0  0.004357787137382894 -0.04980973490458728 0  -0.2 -0.2 0  0.55 -0.2 0  2 -0.2 0  2 0.21 0  0.55 0.21 0  -0.2 0.21 0  0.002180969358710071 0.04995241107951016 0  -0.002180969376377175 0.04995241107873878 0  -0.00218096936205605 -0.04995241107936408 0  0.002180969376762267 -0.04995241107872198 0  -0.00681459716460041 0.04953343583362881 0  -0.009254746165878699 0.04913603233275104 0  -0.01167226821331763 0.04861849601495686 0  -0.01406125270101674 0.04798209220613614 0  -0.01641585879600313 0.04722837685110179 0  -0.01873032971283131 0.04635919271135586 0  -0.02099900679895535 0.04537666485604058 0  -0.02321634335656028 0.04428319547131056 0  -0.02537691821523419 0.04308145798249308 0  -0.02747544897576464 0.04177439052314415 0  -0.0295068049360126 0.04036518874560236 0  -0.03146601963036187 0.03885729800979068 0  -0.03334830296690066 0.03725440496408185 0  -0.03514905295182857 0.03556042852089316 0  -0.03686386691867947 0.03377951029547187 0  -0.03848855232085789 0.03191600445301051 0  -0.04001913696023074 0.02997446708380811 0  -0.04145187870654155 0.02795964505672717 0  -0.04278327464009846 0.02587646442367869 0  -0.04401006963121561 0.02373001835346012 0  -0.04512926428658137 0.02152555469556806 0  -0.04613812228218922 0.0192684631528764 0  -0.04703417705848439 0.01696426209509693 0  -0.04781523785065199 0.0146185850644164 0  -0.04847939503850856 0.01223716702101564 0  -0.04902502482533359 0.009825830289366174 0  -0.04945079319725205 0.00739047036139188 0  -0.04975565919278197 0.004937041451287537 0  -0.04993887744399172 0.002471541954727039 0  -0.05000000000000002 -2.179027782864273e-10 0  -0.04993887742290181 -0.002471542380860383 0  -0.04975565915220143 -0.004937041860259632 0  -0.04945079313853181 -0.007390470754298181 0  -0.04902502474990915 -0.009825830665689136 0  -0.04847939494791073 -0.01223716737993267 0  -0.04781523774597484 -0.01461858540679994 0  -0.04703417694176702 -0.01696426241870103 0  -0.04613812215449838 -0.01926846345863071 0  -0.04512926414810409 -0.02152555498589172 0  -0.04401006948618459 -0.02373001862243695 0  -0.04278327448542859 -0.02587646467940464 0  -0.04145187854660255 -0.0279596452938465 0  -0.04001913680095092 -0.02997446729646378 0  -0.03848855215910903 -0.03191600464806871 0  -0.03686386675419343 -0.0337795104749769 0  -0.03514905278746659 -0.03556042868335375 0  -0.0333483028093871 -0.0372544051050802 0  -0.03146601947545011 -0.03885729813523576 0  -0.02950680478964417 -0.04036518885259716 0  -0.02747544883924331 -0.04177439061293563 0  -0.0253769180845661 -0.04308145805946247 0  -0.02321634324304243 -0.04428319553082456 0  -0.02099900669895044 -0.04537666490231995 0  -0.01873032963061061 -0.04635919274457518 0  -0.01641585872377311 -0.04722837687620784 0  -0.01406125264610136 -0.04798209222222922 0  -0.01167226817214395 -0.04861849602484179 0  -0.009254746140787012 -0.04913603233747704 0  -0.006814597153124481 -0.04953343583520761 0  0.006814597163087254 -0.04953343583383697 0  0.009254746162416328 -0.04913603233340317 0  0.01167226820749043 -0.04861849601635584 0  0.01406125269526824 -0.04798209220782076 0  0.01641585878869484 -0.04722837685364205 0  0.01873032970478165 -0.04635919271460813 0  0.02099900678940205 -0.04537666486046157 0  0.02321634334324823 -0.04428319547828967 0  0.02537691819928517 -0.04308145799188777 0  0.02747544895679411 -0.04177439053562125 0  0.02950680491571239 -0.04036518876044175 0  0.03146601960788315 -0.03885729802799359 0  0.03334830294823126 -0.03725440498079377 0  0.03514905293079007 -0.03556042854168828 0  0.03686386690162479 -0.03377951031408381 0  0.03848855230703181 -0.03191600446968382 0  0.04001913694627814 -0.02997446710243633 0  0.04145187869083342 -0.02795964508001545 0  0.04278327462632659 -0.02587646444644864 0  0.04401006962056583 -0.02373001837321138 0  0.04512926427712953 -0.02152555471538427 0  0.04613812227399118 -0.01926846317250652 0  0.04703417705106056 -0.01696426211567986 0  0.04781523784312168 -0.01461858508904696 0  0.04847939503319636 -0.01223716704206073 0  0.04902502482144694 -0.009825830308758294 0  0.04945079319422288 -0.007390470381660498 0  0.0497556591909245 -0.004937041470007301 0  0.04993887744294273 -0.002471541975922472 0  0.05000000000000002 1.960026680888904e-10 0  0.04993887742406512 0.002471542357355427 0  0.0497556591543939 0.004937041838163785 0  0.04945079314184119 0.007390470732154637 0  0.04902502475403982 0.009825830645079567 0  0.04847939495309415 0.01223716735939779 0  0.04781523775084436 0.01461858539087247 0  0.04703417694693356 0.01696426240437658 0  0.04613812215952091 0.01926846344660432 0  0.04512926415455419 0.02152555497236883 0  0.04401006949386337 0.02373001860819578 0  0.04278327450092428 0.0258764646537846 0  0.04145187856220046 0.02795964527072164 0  0.04001913681616228 0.02997446727615497 0  0.03848855217730672 0.03191600462612355 0  0.03686386677147228 0.03377951045612033 0  0.03514905280168957 0.03556042866929533 0  0.0333483028196165 0.03725440509592335 0  0.03146601948352148 0.03885729812869969 0  0.02950680480117144 0.04036518884417076 0  0.02747544884918156 0.04177439060639914 0  0.02537691809390653 0.04308145805396053 0  0.02321634324922249 0.04428319552758454 0  0.02099900670813883 0.04537666489806784 0  0.01873032963827596 0.04635919274147818 0  0.01641585873206496 0.04722837687332573 0  0.01406125264532184 0.04798209222245766 0  0.01167226817007835 0.04861849602533769 0  0.009254746139683721 0.04913603233768484 0  0.006814597151967234 0.04953343583536681 0  -0.1875196675247935 -0.2 0  -0.1748316574073939 -0.2 0  -0.1619325191073485 -0.2 0  -0.1488187266915765 -0.2 0  -0.1354867190390691 -0.2 0  -0.1219328601465505 -0.2 0  -0.1081534589822707 -0.2 0  -0.09414476550972861 -0.2 0  -0.07990295838040007 -0.2 0  -0.06542416251428446 -0.2 0  -0.05070442829752772 -0.2 0  -0.03573975778997357 -0.2 0  -0.02052606446908414 -0.2 0  -0.005059208186730002 -0.2 0  0.0106650220181323 -0.2 0  0.02665090828184707 -0.2 0  0.04290281009001662 -0.2 0  0.05942514756265038 -0.2 0  0.07622242703544463 -0.2 0  0.09329921759985482 -0.2 0  0.110660176225582 -0.2 0  0.1283100240439488 -0.2 0  0.146253576648871 -0.2 0  0.1644957213272042 -0.2 0  0.1830414174264912 -0.2 0  0.2018957247245375 -0.2 0  0.2210637776854531 -0.2 0  0.2405507899571802 -0.2 0  0.2603620802338072 -0.2 0  0.2805030369240936 -0.2 0  0.3009791461642926 -0.2 0  0.3217959913512258 -0.2 0  0.3429592352388189 -0.2 0  0.3644746444814039 -0.2 0  0.3863480802046066 -0.2 0  0.4085854997083186 -0.2 0  0.4311929582382759 -0.2 0  0.4541766169094176 -0.2 0  0.4775427325114808 -0.2 0  0.5012976686781503 -0.2 0  0.5254479007761028 -0.2 0  0.5750000000714078 -0.2 0  0.6000000001173931 -0.2 0  0.6250000002059986 -0.2 0  0.6500000002385247 -0.2 0  0.675000000336103 -0.2 0  0.7000000003686291 -0.2 0  0.7250000004542437 -0.2 0  0.7500000005062106 -0.2 0  0.7750000005716368 -0.2 0  0.8000000006490264 -0.2 0  0.8250000006890297 -0.2 0  0.8500000007910944 -0.2 0  0.8750000008565204 -0.2 0  0.9000000009518555 -0.2 0  0.9250000010408349 -0.2 0  0.9500000011343006 -0.2 0  0.9750000012251494 -0.2 0  1.000000001296183 -0.2 0  1.0250000013646 -0.2 0  1.050000001466665 -0.2 0  1.075000001557888 -0.2 0  1.100000001673038 -0.2 0  1.125000001762017 -0.2 0  1.150000001851744 -0.2 0  1.175000001947827 -0.2 0  1.200000002046153 -0.2 0  1.225000002155695 -0.2 0  1.25000000221813 -0.2 0  1.275000002244301 -0.2 0  1.300000002154947 -0.2 0  1.325000002108962 -0.2 0  1.350000002019609 -0.2 0  1.375000001973624 -0.2 0  1.400000001884271 -0.2 0  1.42500000182707 -0.2 0  1.450000001748932 -0.2 0  1.475000001659579 -0.2 0  1.500000001570226 -0.2 0  1.525000001480872 -0.2 0  1.550000001391519 -0.2 0  1.575000001345534 -0.2 0  1.60000000125618 -0.2 0  1.625000001210195 -0.2 0  1.650000001120842 -0.2 0  1.675000001066632 -0.2 0  1.700000000985504 -0.2 0  1.725000000905871 -0.2 0  1.750000000850165 -0.2 0  1.775000000760812 -0.2 0  1.800000000714827 -0.2 0  1.825000000625473 -0.2 0  1.85000000053612 -0.2 0  1.875000000446767 -0.2 0  1.900000000357413 -0.2 0  1.92500000026806 -0.2 0  1.950000000178707 -0.2 0  1.975000000089353 -0.2 0  2 -0.1758823529236379 0  2 -0.1517647057870068 0  2 -0.1276470586430415 0  2 -0.103529411528254 0  2 -0.07941176439513059 0  2 -0.05529411724717925 0  2 -0.03117647008918309 0  2 -0.007058822960843009 0  2 0.01705882406928105 0  2 0.0411764710640091 0  2 0.06529411804247409 0  2 0.08941176503720205 0  2 0.11352941203193 0  2 0.137647059026658 0  2 0.1617647060111818 0  2 0.185882353005272 0  1.974999999927471 0.21 0  1.949999999833257 0.21 0  1.924999999782412 0.21 0  1.899999999688198 0.21 0  1.874999999637353 0.21 0  1.849999999543139 0.21 0  1.824999999448926 0.21 0  1.799999999354712 0.21 0  1.774999999260499 0.21 0  1.749999999166286 0.21 0  1.724999999082914 0.21 0  1.699999998977859 0.21 0  1.674999998902712 0.21 0  1.649999998789432 0.21 0  1.624999998688863 0.21 0  1.599999998581938 0.21 0  1.574999998495201 0.21 0  1.549999998413699 0.21 0  1.524999998318364 0.21 0  1.499999998273501 0.21 0  1.474999998238357 0.21 0  1.449999998189755 0.21 0  1.424999998038714 0.21 0  1.399999997975905 0.21 0  1.37499999792992 0.21 0  1.349999997902628 0.21 0  1.324999997821126 0.21 0  1.299999997699994 0.21 0  1.274999997636438 0.21 0  1.249999997681301 0.21 0  1.224999997765794 0.21 0  1.199999997857764 0.21 0  1.174999997916835 0.21 0  1.149999998014039 0.21 0  1.124999998067875 0.21 0  1.09999999816508 0.21 0  1.074999998218916 0.21 0  1.049999998316121 0.21 0  1.02499999838865 0.21 0  0.999999998467161 0.21 0  0.9749999985209969 0.21 0 
[...]
<PointData  Scalars="pressure"> 
<DataArray  type="Float64"  Name="pressure"  format="ascii">-7.5733437330242370e-01  -8.1913434180398981e-01  -8.6976758227797646e-01  -9.3657091785557034e-01  -8.7758267197638917e-01  -8.0575101923429149e-01  4.5169991135027471e-01  1.4686632522103615e-01  0.0000000000000000e+00  0.0000000000000000e+00  -5.7033279773926124e-02  4.3877037576968930e-01  -7.8771873777054546e-01  -8.4609714451259277e-01  -9.0987448563922890e-01  -8.4144972470890511e-01  -8.9110300861515934e-01  -9.0352354646361932e-01  -9.0417644892007087e-01  -8.9317688508800042e-01  -8.6828299923874397e-01  -8.2674947998367965e-01  -7.7102921462957186e-01  -7.0145526903177524e-01  -6.1385107071179645e-01  -5.0904531911657480e-01  -3.9000860197688864e-01  -2.6125167073039018e-01  -1.2034970417188211e-01  3.6196633239998811e-02  1.9561274671849094e-01  3.6531935379840408e-01  5.3582363105303754e-01  7.0451341608397522e-01  8.7803433756071192e-01  1.0394270916664250e+00  1.2004950171498934e+00  1.3497067821574296e+00  1.4846475115830380e+00  1.6088629909029641e+00  1.7143120445069528e+00  1.8017633076107589e+00  1.8708541397687923e+00  1.9207519025958955e+00  1.9451430453689127e+00  1.9497209309686856e+00  1.9324967744493220e+00  1.8923095064760265e+00  1.8319869344414690e+00  1.7502057164935647e+00  1.6511004050427827e+00  1.5361551242603673e+00  1.4026715517134416e+00  1.2598035564195496e+00  1.1031822290108406e+00  9.3766712519597639e-01  7.6797376080278423e-01  5.9344015378281678e-01  4.2183065898630145e-01  2.5105074527530358e-01  7.9090816415244278e-02  -7.3542732766438038e-02  -2.3234712253311765e-01  -3.6847927986120538e-01  -4.9868345923319657e-01  -6.0970756260242764e-01  -7.1268619277220524e-01  -7.9458286742059370e-01  -8.6371310085039421e-01  -9.1708971532134609e-01  -9.5144199652930350e-01  -9.7460576052966452e-01  -9.8064890491273349e-01  -9.7885024565163736e-01  -9.6179201724550245e-01  -7.6399551596824433e-01  -7.2384683976100295e-01  -6.8486765447647280e-01  -6.4793722085899141e-01  -6.1359893731253590e-01  -5.8344773914179593e-01  -5.5610473509733849e-01  -5.3252266214905664e-01  -5.1188531033224527e-01  -4.9408157302128775e-01  -4.7912203984166613e-01  -4.6601108841551148e-01  -4.5540698237801019e-01  -4.4663792607397856e-01  -4.3894258694170618e-01  -4.3267505573856824e-01  -4.2710718063051184e-01  -4.2220665027539545e-01  -4.1747841269242864e-01  -4.1293902501996810e-01  -4.0863669475435732e-01  -4.0419662409541363e-01  -3.9974688635139916e-01  -3.9559849028256300e-01  -3.9142783329590103e-01  -3.8772298548596612e-01  -3.8457134038703783e-01  -3.8181912289761710e-01  -3.7999898376149899e-01  -3.7900310370538481e-01  -3.7881145740526556e-01  -3.7945096688882379e-01  -3.8090343368870200e-01  -3.8298668265185826e-01  -3.8571055792006542e-01  -3.8885898886657905e-01  -3.9226613544885386e-01  -3.9585078461310558e-01  -3.9944971549162422e-01  -4.0319230524568644e-01  -4.0685906456521759e-01  -4.1076951511322674e-01  -4.1495119717949491e-01  -4.1941503003595793e-01  -4.2497487485397994e-01  -4.3082316792303699e-01  -4.3882707732459880e-01  -4.4808603842572720e-01  -4.5896176680454909e-01  -4.7241443254788584e-01  -4.8801668595254322e-01  -5.0631926170800001e-01  -5.2747848653010654e-01  -5.5170936440691787e-01  -5.7928448753385697e-01  -6.0981110638267566e-01  -6.4311604150862145e-01  -6.7942695688663934e-01  -7.1609788438731070e-01  4.5104500943779086e-01  4.5014029472527706e-01  4.4815161773629547e-01  4.4523768857121265e-01  4.4060314149995689e-01  4.3390029608079078e-01  4.2427162260518392e-01  4.1128705712687763e-01  3.9369848090687731e-01  3.7128330061269449e-01  3.4324317596068865e-01  3.0852105238167343e-01  2.6941217695356506e-01  2.2415375779786423e-01  1.7632539162560745e-01  1.2704427647202948e-01  7.6685690569023413e-02  3.0489993607310771e-02  -1.4098546957512989e-02  -5.3602706696223593e-02  -8.7608885724254335e-02  -1.1651414348942524e-01  -1.3977138800435246e-01  -1.5680665878569677e-01  -1.6864904845354442e-01  -1.7516589066796714e-01  -1.7818387115594658e-01  -1.7766718472621143e-01  -1.7262036401115397e-01  -1.6692612677461935e-01  -1.5744149235038121e-01  -1.4528492210916238e-01  -1.2827308752362412e-01  -1.0631788911551847e-01  -7.6272933267842000e-02  -4.1145944741278390e-02  2.1269350470788004e-03  4.7157856378027406e-02  8.8497719295538138e-02  1.2398802193638421e-01  1.4498208006486160e-01  1.3190910773450101e-01  1.0144143118609807e-01  6.3133685113680241e-02  3.0627123540072000e-02  8.7282308847911778e-03  2.7926528432229078e-03  1.3196336005509766e-02  3.0970854922949348e-02  5.1945418262334703e-02  6.7894125949573933e-02  7.6384130670920675e-02  7.8194115988641275e-02  7.8557539963558590e-02  8.0420000799248131e-02  8.5994830800782684e-02  9.5000010343508925e-02  1.0440384671581959e-01  1.1142171960711890e-01  1.1546662724243209e-01  1.1497400695333446e-01  1.1067289455945808e-01  1.0270407576556766e-01  9.2849029726359611e-02  8.0312928011755796e-02  6.7374512470095529e-02  5.4480620301790447e-02  4.1214374743500926e-02  3.0178974610672996e-02  2.1765425346612528e-02  2.0648792981204801e-02  2.6058133995468261e-02  4.1846428132707135e-02  6.1190130154057804e-02  8.0625505626826452e-02  9.5007673282590105e-02  1.0032463514588411e-01  9.7708934392216465e-02  8.9224548132286099e-02  7.6800500264462307e-02  6.1730929764450042e-02  4.6452916785750080e-02  3.0797987349237013e-02  1.5951356614560951e-02  2.3272462012318288e-03  -8.6048937730981295e-03  -1.4773600998654070e-02  -1.5166671402132651e-02  -5.9109206016747925e-03  1.0706773834473245e-02  3.0850297237919180e-02  4.9399736296316596e-02  6.4142559310733122e-02  6.9423228470338674e-02  6.6641073252074731e-02  5.5738010162857232e-02  3.8639259878659016e-02  1.9659408902226921e-02  0.0000000000000000e+00  0.0000000000000000e+00  0.0000000000000000e+00  0.0000000000000000e+00  0.0000000000000000e+00  0.0000000000000000e+00  0.0000000000000000e+00  0.0000000000000000e+00  0.0000000000000000e+00  0.0000000000000000e+00  0.0000000000000000e+00  0.0000000000000000e+00  0.0000000000000000e+00  0.0000000000000000e+00  0.0000000000000000e+00  0.0000000000000000e+00  -1.0471558675930878e-02  -1.9894736404185081e-02  -2.5993963161593248e-02  -2.6475900909973010e-02  -2.1427472089217133e-02  -1.2492856574444050e-02  2.2937621978714025e-04  1.4561395735679489e-02  3.0568109853117868e-02  4.7057739962116450e-02  6.1674981584154027e-02  7.1774384205061367e-02  7.6903657258547545e-02  7.3785408456968848e-02  6.2687067361857987e-02  4.5802733640642565e-02  2.8038357727641634e-02  1.5035501303158439e-02  8.1489372345455967e-03  8.2068759408597970e-03  1.4095040934698709e-02  2.3141854222983843e-02  3.3584764554954842e-02  4.4908118359481636e-02  5.6598577636876750e-02  6.8471657538975966e-02  7.9644952095956442e-02  8.9709173937027778e-02  9.6867928028998115e-02  9.9861226067902528e-02  9.8828411501975799e-02  9.1403019317669240e-02  7.9798099832320640e-02  6.5807204576108752e-02  5.4739735179754168e-02  4.7890655812171085e-02  4.7054116979329694e-02  5.0763271906272368e-02  5.5741349362610916e-02  5.8507319005905348e-02  5.8467803474334917e-02  5.6823498968539270e-02  5.6826450378535641e-02  6.1395431862763708e-02  7.2837268154675880e-02  8.8315948534425939e-02  1.0769606688583054e-01  1.2516679876396980e-01  1.3825672239645695e-01  1.4634791217589244e-01  1.4599550247460702e-01  1.3739216382958924e-01  1.1820532532190085e-01  8.9301402410229602e-02  5.3472549896007762e-02  1.2448148515142117e-02  -2.6236410525473940e-02  -7.7032010650636210e-02  -8.0379199454205436e-02  -7.0846353522373715e-02  -5.6392064456321195e-02  -3.8600285893179494e-02  -2.5532931519189322e-02  -1.8756168495460517e-02  -1.9666091170136426e-02  -2.5776819846883934e-02  -3.6595806147589970e-02  -5.0509983426199695e-02  -6.5015221227247302e-02  -7.9079989423565672e-02  -9.1277372949113617e-02  -1.0110510842668383e-01  -1.0418258938584136e-01  -1.0423526168911354e-01  -9.6237690790396582e-02  -8.5389041349394956e-02  -6.5519456542659574e-02  -4.0674507386179663e-02  -1.1569438565307734e-02  2.4795302680928201e-02  6.3322477484005130e-02  1.0504911856997604e-01  1.4836623322918999e-01  1.9140373662344465e-01  2.3281598388763700e-01  2.7180079578486099e-01  3.0652113617920645e-01  3.3621880019123174e-01  3.6193038635752534e-01  3.8237029984750437e-01  3.9836991709499597e-01  4.1110752596341504e-01  4.2034280504047178e-01  4.2717798560191966e-01  4.3193714379196113e-01  4.3509146147695571e-01  4.3701345525863261e-01  4.3809415678337704e-01  4.3862945634377370e-01  4.3961926844990495e-01  4.4318398024684880e-01  4.5048789134748318e-01  4.6238719861731464e-01  4.7968908820959832e-01  5.0248929984162993e-01  5.3062773584354650e-01  5.6353243859839597e-01  6.0028945781043075e-01  6.3875357226098695e-01  6.7737808201690453e-01  7.1325792047330272e-01  7.4351085868582401e-01  7.6682885103959508e-01  7.8013703367251408e-01  7.8286870391209795e-01  7.7423671930672056e-01  7.5542922944673596e-01  7.2769638441295270e-01  6.9443248027298698e-01  6.5702208142871976e-01  6.1854167582737030e-01  5.8130003209773429e-01  5.4752088676343258e-01  5.1820040087921060e-01  4.9440382589015652e-01  4.7633119127836299e-01  4.6373260753477918e-01  4.5635582910687000e-01  4.5243667702678275e-01  4.5157303020035783e-01  1.5256686585965171e-01  1.6918860495112389e-01  1.8300853558883423e-01  1.7908081535322934e-01  1.5825625513627553e-01  1.5066893715594351e-01  1.3510937816048771e-01  1.0547929800916450e-01  1.0184923162240232e-01  8.1750450181851009e-02  4.2001934546817200e-02  -5.5935443663885469e-03  -4.5544342844728684e-02  -6.7315319475952484e-02  -7.0542309919687449e-02  -6.1704406445618566e-02  8.7915905218998405e-02  -3.0245990958553946e-03  -7.2628999833384052e-03  6.2745995727558970e-02  8.6446218319652639e-03  1.1673447135591802e-02  9.4989726719179116e-02  7.6692948438511982e-03  -3.5996085551768503e-02  7.3544884470377256e-02  3.4554712225049557e-02  7.6783488143447626e-02  9.2333979862050351e-03  1.1843289772560112e-01  3.6856580510182577e-02  1.0028203350131258e-01  8.8177838240453374e-02  9.5696951901918098e-02  -1.2568867221691666e-02  -3.2469283790960160e-02  4.1920887009994474e-02  4.7001684263040244e-02  5.3003941328776782e-02  -7.4476878345440846e-03  1.1083212280158014e-01  3.2524499929435763e-02  7.4703340939145796e-02  7.2926294655965132e-02  1.6043499572820286e-01  -8.6087723149470222e-03  1.9243079126341430e-02  2.8218254028306487e-02  -5.9384473073160825e-02  -7.1178393120839142e-03  5.1292786619128120e-03  2.0742109436417119e-02  -1.2207129494134941e-03  8.5767367024113504e-04  1.7955453869667005e-02  4.7178405277472722e-03  8.5600049597556918e-02  2.6411203859505482e-02  -1.5065126324026270e-03  8.7946732752447118e-02  1.1682627885631419e-01  -4.3854886249838666e-03  4.5977499326374502e-02  6.6446788552394206e-02  6.5726238092229022e-02  -3.7458562305354624e-02  7.2001439606048059e-02  8.8170458366812823e-02  2.5843914105499216e-02  4.6826135580371873e-02  1.2336028737054079e-01  1.0939912850486641e-01  3.6434403968923404e-02  6.1278232375814340e-02  3.8462377128416096e-02  1.0612577950016124e-01  6.9866681947883145e-03  2.9148848979355792e-02  1.1943492138445155e-01  -3.2581981985420033e-02  8.0886603307596533e-02  6.9621999521472480e-02  -8.7350520076388716e-02  -1.9330546389968038e-02  -3.9367981182817778e-02  6.7137489088126126e-02  1.7690015804317373e-02  7.1219478591130092e-02  3.8616216189157442e-02  1.4910124179006445e-01  7.0274188052068087e-02  -2.4110029595679958e-02  -1.2561360641209360e-02  2.3217874064204894e-02  1.1111752948156821e-01  6.5919646564990178e-02  6.3536885199225318e-02  -3.9916405430653945e-02  3.9506419865555614e-02  2.2170389233503812e-02  8.2085452915168472e-02  -3.3865162858635431e-02  1.9710582334694977e-02  1.8443911724612929e-02  7.9606725207895551e-02  1.2245316383820623e-01  -2.5411427004344348e-02  1.0555566088553778e-01  -1.0440793547456039e-02  8.1912754838157339e-02  3.5554274396253284e-02  5.7592461495745352e-02  2.7481089814053073e-03  1.9387794681547835e-02  3.0554527753440520e-02  1.0746165494333178e-01  3.6181183288142384e-02  3.3336855841576050e-02  3.9318100550669893e-02  6.3983671551275267e-02  5.7015493451872470e-02  1.7424164861120708e-02  -2.0949623934462033e-02  -5.3886666910668644e-02  9.2892509036822155e-02  5.0045049283134177e-02  2.6665584540142090e-02  8.2862071141279095e-02  8.1261042135538364e-02  1.4497023081449451e-01  -2.9337024417345424e-03  3.4882802827316324e-02  5.6167092087197688e-02  -9.0608033421812589e-02  1.9842309807635596e-02  4.8245709166511212e-02  2.5905614111042644e-02  2.9523499495608525e-02  1.0613837058491157e-01  7.7845719066254496e-02  -2.9044175869566806e-02  3.9382422785070193e-03  1.0360212728292929e-01  1.9155081336980712e-02  3.3717691940924555e-02  8.4919521945826526e-02  5.4851296519887106e-02  1.4547342448604821e-02  -1.3660032437849997e-02  8.5488259763258925e-02  7.1080341060537289e-02  -1.1484430062170877e-03  -4.3281322635492697e-02  6.9599238722909740e-02  1.3958832540388152e-01  4.7307428391796115e-02  4.0352323604072454e-02  1.1806269959932934e-01  1.9490742830521029e-02  -3.5984226177005446e-02  5.1372667894405137e-02  -2.5671802370345866e-02  1.1662260176132355e-01  7.0837503673643731e-03  -2.2991784181371031e-02  -3.4555094351839344e-02  3.8411779567240845e-02  4.5097682607595030e-02  9.4696997601215763e-02  8.4463328462560355e-02  6.3039268476160232e-02  7.7602352784184675e-02  -1.6101011214137803e-02  7.7553856196090912e-02  1.0377196894723310e-01  1.2120722189870951e-02  1.2914494129456044e-01  5.5790919454258590e-02  1.0961291735846407e-01  4.4059273036949301e-02  4.3190733521908276e-02  5.2890885144192733e-02  1.2908550717114806e-01  -1.6943629607670832e-02  6.0523352976175795e-02  -4.3722515407259327e-02  -1.6749272772605156e-02  5.9347007809704824e-02  6.5531446958393927e-02  2.4487767432768662e-02  9.8045054066873402e-02  -1.2495488793773088e-02  8.8934461820906266e-03  4.1891407192526674e-02  2.4575385334394687e-02  1.1646198151660281e-01  -1.0975513616742425e-02  3.4266016296431813e-02  1.2654889593692911e-01  -2.0615275581115856e-02  1.9105471332654618e-02  9.4283373501559450e-02  -3.1564401862653989e-02  8.8483764310202634e-02  1.8761547778097722e-02  -2.4593274543702120e-02  -1.8394647458184900e-02  5.2521855523870002e-02  -4.8985502681655434e-03  2.9833427600842077e-02  -6.1211383503217941e-03  -1.5166596522280180e-02  5.3363989750116601e-02  1.2241687895463368e-01  -2.4553102851510883e-02  8.0452989209312153e-02  1.1168292175876451e-01  8.5636165223573202e-03  3.9566726646845664e-02  1.1092739371122588e-02  1.5458064499431495e-01  7.0671214104760594e-03  9.7429782097408005e-02  7.2037053121538838e-02  4.9785955183801597e-03  1.0639176274575815e-02  -2.1021288896605244e-02  3.1850212707023175e-03  6.6215693793848243e-02  4.2926805970146663e-02  7.8617950386657157e-02  -1.2825426239573281e-03  4.3887239804656045e-02  4.6451516458807483e-02  7.1820167543243246e-02  8.0892267223368175e-02  -4.4056165097565381e-02  3.4089503768754734e-02  7.2217248536365589e-02  4.6268451651166512e-02  -7.5702838254893033e-03  1.0466213598310860e-01  6.6922305043693522e-02  3.3962137061892606e-02  1.0809513906899220e-02  -3.3949243720675037e-02  1.5000637451093876e-02  6.6233280155909721e-02  1.8097028541597317e-02  1.4603156081784824e-01  7.3570536975094428e-02  9.1903077530187796e-02  -2.2296880679232106e-02  1.1510031328514664e-01  -3.0984651607907931e-02  5.3977555668450784e-02  7.9985551872124583e-02  3.4064969677231702e-02  -2.8475669824396248e-02  8.0050016666540741e-02  2.8781825218049690e-02  1.0101838745629805e-02  -3.9607297391112455e-02  9.8500126942669936e-02  9.8417218499756529e-02  2.6863540263361626e-02  4.1114900186280563e-03  2.8738004911316853e-02  2.0893880402428580e-02  1.0242812320094166e-01  5.7199422281618270e-02  1.1925490103398381e-01  7.6866974962616394e-02  -1.7030238990297038e-02  -1.2759008843178488e-02  4.3093401907522200e-02  8.5422941835258892e-02  5.8267806352801522e-02  6.3318445651040348e-02  5.5486506822040899e-02  -3.0554606010377246e-02  1.1994988772460087e-01  -2.8992210098608338e-02  5.2188130151811243e-02  3.6711312314066553e-02  2.5109274228034305e-04  8.6252644238616921e-02  5.7312212918267838e-02  2.7022294233251084e-02  5.2132771459146722e-02  6.5456015763207032e-02  8.3816811355969828e-02  6.1282700684939254e-02  1.1033520381333296e-01  3.5955492579136821e-03  1.0205882431845072e-01  1.1437806449643019e-01  -3.4767773883578552e-02  -3.4674576837074203e-03  5.7053499451676114e-02  1.1709276193617707e-01  3.1644640370495920e-02  4.4056068438482136e-02  3.1642726062584434e-02  1.4989084314092463e-01  -2.0082492728747486e-02  -2.2349596250843665e-02  6.0763587443735903e-02  -4.6037401999493729e-02  5.7274251019157410e-02  7.2521068510121051e-02  7.8845640605262418e-02  -7.2751271530449978e-03  1.3942594572987982e-01  6.8918134186802427e-02  -8.9182108185203515e-03  -1.4695840771380166e-02  8.0802572631705843e-02  1.5944313358619264e-02  6.1106906689230162e-02  5.0806011360001992e-02  5.4342268598794208e-02  1.4403341118782342e-01  6.7833557960713262e-02  1.6023693365464092e-01  3.4811293514373919e-02  6.9806436945353502e-03  5.4852842153408935e-03  5.7675632296236724e-03  1.2462094030745310e-01  -6.4407049270742645e-02  1.8179607789101302e-02  1.1388954670648228e-02  9.6801496629479705e-02  5.6003763029165723e-02  9.1905025037973001e-02  4.5448291323330260e-02  4.5976059477558895e-02  8.7726897945627144e-02  5.5847171650005190e-02  9.1101496734286094e-02  -2.4857767997339335e-02  6.4682342108629595e-02  7.4697315278485513e-02  4.6410953163480727e-02  8.8392790491587964e-02  1.0699987091272678e-02  -3.2354876138073876e-02  5.4167341896766648e-02  8.7518542050350631e-02  -2.2801996891616775e-02  4.3627802490326682e-02  -1.0506499307797054e-01  -4.0557535904238960e-02  -1.9145108556926485e-02  1.7547595677442379e-02  1.0302800419792234e-01  -2.2617607246122922e-02  6.4949260577398471e-02  -2.4699302650629491e-02  -2.8644861564655181e-02  -6.0325432362859270e-03  2.7170315502466687e-02  4.5538811880560554e-02  5.8913471269668283e-02  -4.5465384067856267e-02  1.2089062915041556e-02  1.2352459687863165e-01  8.1139463400731221e-02  -3.7792886935211149e-02  4.1741895052022152e-02  2.6375258034939782e-02  1.1507659013562364e-01  9.2719627709802591e-02  1.0249950900868560e-01  4.6115329303550813e-02  1.1433492169385893e-01  1.6779651267359932e-02  7.7693449179929291e-02  4.3813672768041545e-02  4.4412039672812821e-04  3.1821477534750738e-02  6.6779218128902890e-02  6.9053122409908872e-03  3.4935957439512409e-02  -1.7625074610552512e-02  7.2750557297841384e-02  1.4182956810828169e-02  2.1684156764571610e-02  2.8917960934322934e-02  2.2127724416292776e-02  1.6998053017627267e-02  1.5380729972203510e-02  -2.0570888611089629e-02  1.4769637345161377e-01  -9.4934514138455238e-04  7.8558139783706557e-02  8.9899512983681332e-02  2.3804716633738454e-02  9.0151226798726405e-02  4.4364865859352044e-02  1.0810735959449860e-01  -5.1757644221116922e-03  5.9372856599376432e-02  6.0985636806200607e-03  4.7920236633504802e-02  9.9996407252092911e-02  5.6985040187877138e-02  1.4046504401551412e-02  -6.5548197554976290e-02  1.5442310247158275e-01  6.9793279973271019e-02  1.1290047984898216e-02  5.5377710764379154e-02  2.5169760868004624e-03  7.2846079923136936e-02  2.1299782982464016e-02  8.7973667351138002e-04  2.2033503075377103e-02  3.4586725658131590e-02  5.7010611801260103e-02  5.7144579473745939e-02  8.0780665630907092e-02  -4.0049872989653089e-02  8.5616145707618121e-02  1.8885768199482515e-02  7.8036389481807661e-02  1.0314060841408985e-01  9.4490558928995813e-02  1.9651787524251837e-02  7.9201608487418237e-02  5.8972460835261947e-02  6.5032804989350171e-02  3.9018510464523586e-02  2.2635855030829322e-02  1.8580894503042795e-02  1.4649389451590802e-01  -4.7441396842321591e-02  9.8569996122317413e-02  2.3847622636887496e-02  6.9687722855233628e-02  6.016742