<?xml version="1.0"?>
<VTKFile type="UnstructuredGrid"  version="0.1"  >
<UnstructuredGrid>
<Piece  NumberOfPoints="4820" NumberOfCells="9262">
<Points>
<DataArray  type="Float64"  NumberOfComponents="3"  format="ascii">0.004357787137382907 0.04980973490458728 0  3.061616997868383e-18 0.05 0  -0.004357787137382901 0.04980973490458728 0  -0.004357787137382912 -0.04980973490458728 0  -9.184850993605149e-18 -0.05 0  0.004357787137382894 -0.04980973490458728 0  -0.2 -0.2 0  0.55 -0.2 0  2 -0.2 0  2 0.21 0  0.55 0.21 0  -0.2 0.21 0  0.002180969358710071 0.04995241107951016 0  -0.002180969376377175 0.04995241107873878 0  -0.00218096936205605 -0.04995241107936408 0  0.002180969376762267 -0.04995241107872198 0  -0.00681459716460041 0.04953343583362881 0  -0.009254746165878699 0.04913603233275104 0  -0.01167226821331763 0.04861849601495686 0  -0.01406125270101674 0.04798209220613614 0  -0.01641585879600313 0.04722837685110179 0  -0.01873032971283131 0.04635919271135586 0  -0.02099900679895535 0.04537666485604058 0  -0.02321634335656028 0.04428319547131056 0  -0.02537691821523419 0.04308145798249308 0  -0.02747544897576464 0.04177439052314415 0  -0.0295068049360126 0.04036518874560236 0  -0.03146601963036187 0.03885729800979068 0  -0.03334830296690066 0.03725440496408185 0  -0.03514905295182857 0.03556042852089316 0  -0.03686386691867947 0.03377951029547187 0  -0.03848855232085789 0.03191600445301051 0  -0.04001913696023074 0.02997446708380811 0  -0.04145187870654155 0.02795964505672717 0  -0.04278327464009846 0.02587646442367869 0  -0.04401006963121561 0.02373001835346012 0  -0.04512926428658137 0.02152555469556806 0  -0.04613812228218922 0.0192684631528764 0  -0.04703417705848439 0.01696426209509693 0  -0.04781523785065199 0.0146185850644164 0  -0.04847939503850856 0.01223716702101564 0  -0.04902502482533359 0.009825830289366174 0  -0.04945079319725205 0.00739047036139188 0  -0.04975565919278197 0.004937041451287537 0  -0.04993887744399172 0.002471541954727039 0  -0.05000000000000002 -2.179027782864273e-10 0  -0.04993887742290181 -0.002471542380860383 0  -0.04975565915220143 -0.004937041860259632 0  -0.04945079313853181 -0.007390470754298181 0  -0.04902502474990915 -0.009825830665689136 0  -0.04847939494791073 -0.01223716737993267 0  -0.04781523774597484 -0.01461858540679994 0  -0.04703417694176702 -0.01696426241870103 0  -0.04613812215449838 -0.01926846345863071 0  -0.04512926414810409 -0.02152555498589172 0  -0.04401006948618459 -0.02373001862243695 0  -0.04278327448542859 -0.02587646467940464 0  -0.04145187854660255 -0.0279596452938465 0  -0.04001913680095092 -0.02997446729646378 0  -0.03848855215910903 -0.03191600464806871 0  -0.03686386675419343 -0.0337795104749769 0  -0.03514905278746659 -0.03556042868335375 0  -0.0333483028093871 -0.0372544051050802 0  -0.03146601947545011 -0.03885729813523576 0  -0.02950680478964417 -0.04036518885259716 0  -0.02747544883924331 -0.04177439061293563 0  -0.0253769180845661 -0.04308145805946247 0  -0.02321634324304243 -0.04428319553082456 0  -0.02099900669895044 -0.04537666490231995 0  -0.01873032963061061 -0.04635919274457518 0  -0.01641585872377311 -0.04722837687620784 0  -0.01406125264610136 -0.04798209222222922 0  -0.01167226817214395 -0.04861849602484179 0  -0.009254746140787012 -0.04913603233747704 0  -0.006814597153124481 -0.04953343583520761 0  0.006814597163087254 -0.04953343583383697 0  0.009254746162416328 -0.04913603233340317 0  0.01167226820749043 -0.04861849601635584 0  0.01406125269526824 -0.04798209220782076 0  0.01641585878869484 -0.04722837685364205 0  0.01873032970478165 -0.04635919271460813 0  0.02099900678940205 -0.04537666486046157 0  0.02321634334324823 -0.04428319547828967 0  0.02537691819928517 -0.04308145799188777 0  0.02747544895679411 -0.04177439053562125 0  0.02950680491571239 -0.04036518876044175 0  0.03146601960788315 -0.03885729802799359 0  0.03334830294823126 -0.03725440498079377 0  0.03514905293079007 -0.03556042854168828 0  0.03686386690162479 -0.03377951031408381 0  0.03848855230703181 -0.03191600446968382 0  0.04001913694627814 -0.02997446710243633 0  0.04145187869083342 -0.02795964508001545 0  0.04278327462632659 -0.02587646444644864 0  0.04401006962056583 -0.02373001837321138 0  0.04512926427712953 -0.02152555471538427 0  0.04613812227399118 -0.01926846317250652 0  0.04703417705106056 -0.01696426211567986 0  0.04781523784312168 -0.01461858508904696 0  0.04847939503319636 -0.01223716704206073 0  0.04902502482144694 -0.009825830308758294 0  0.04945079319422288 -0.007390470381660498 0  0.0497556591909245 -0.004937041470007301 0  0.04993887744294273 -0.002471541975922472 0  0.05000000000000002 1.960026680888904e-10 0  0.04993887742406512 0.002471542357355427 0  0.0497556591543939 0.004937041838163785 0  0.04945079314184119 0.007390470732154637 0  0.04902502475403982 0.009825830645079567 0  0.04847939495309415 0.01223716735939779 0  0.04781523775084436 0.01461858539087247 0  0.04703417694693356 0.01696426240437658 0  0.04613812215952091 0.01926846344660432 0  0.04512926415455419 0.02152555497236883 0  0.04401006949386337 0.02373001860819578 0  0.04278327450092428 0.0258764646537846 0  0.04145187856220046 0.02795964527072164 0  0.04001913681616228 0.02997446727615497 0  0.03848855217730672 0.03191600462612355 0  0.03686386677147228 0.03377951045612033 0  0.03514905280168957 0.03556042866929533 0  0.0333483028196165 0.03725440509592335 0  0.03146601948352148 0.03885729812869969 0  0.02950680480117144 0.04036518884417076 0  0.02747544884918156 0.04177439060639914 0  0.02537691809390653 0.04308145805396053 0  0.02321634324922249 0.04428319552758454 0  0.02099900670813883 0.04537666489806784 0  0.01873032963827596 0.04635919274147818 0  0.01641585873206496 0.04722837687332573 0  0.01406125264532184 0.04798209222245766 0  0.01167226817007835 0.04861849602533769 0  0.009254746139683721 0.04913603233768484 0  0.006814597151967234 0.04953343583536681 0  -0.1875196675247935 -0.2 0  -0.1748316574073939 -0.2 0  -0.1619325191073485 -0.2 0  -0.1488187266915765 -0.2 0  -0.1354867190390691 -0.2 0  -0.1219328601465505 -0.2 0  -0.1081534589822707 -0.2 0  -0.09414476550972861 -0.2 0  -0.07990295838040007 -0.2 0  -0.06542416251428446 -0.2 0  -0.05070442829752772 -0.2 0  -0.03573975778997357 -0.2 0  -0.02052606446908414 -0.2 0  -0.005059208186730002 -0.2 0  0.0106650220181323 -0.2 0  0.02665090828184707 -0.2 0  0.04290281009001662 -0.2 0  0.05942514756265038 -0.2 0  0.07622242703544463 -0.2 0  0.09329921759985482 -0.2 0  0.110660176225582 -0.2 0  0.1283100240439488 -0.2 0  0.146253576648871 -0.2 0  0.1644957213272042 -0.2 0  0.1830414174264912 -0.2 0  0.2018957247245375 -0.2 0  0.2210637776854531 -0.2 0  0.2405507899571802 -0.2 0  0.2603620802338072 -0.2 0  0.2805030369240936 -0.2 0  0.3009791461642926 -0.2 0  0.3217959913512258 -0.2 0  0.3429592352388189 -0.2 0  0.3644746444814039 -0.2 0  0.3863480802046066 -0.2 0  0.4085854997083186 -0.2 0  0.4311929582382759 -0.2 0  0.4541766169094176 -0.2 0  0.4775427325114808 -0.2 0  0.5012976686781503 -0.2 0  0.5254479007761028 -0.2 0  0.5750000000714078 -0.2 0  0.6000000001173931 -0.2 0  0.6250000002059986 -0.2 0  0.6500000002385247 -0.2 0  0.675000000336103 -0.2 0  0.7000000003686291 -0.2 0  0.7250000004542437 -0.2 0  0.7500000005062106 -0.2 0  0.7750000005716368 -0.2 0  0.8000000006490264 -0.2 0  0.8250000006890297 -0.2 0  0.8500000007910944 -0.2 0  0.8750000008565204 -0.2 0  0.9000000009518555 -0.2 0  0.9250000010408349 -0.2 0  0.9500000011343006 -0.2 0  0.9750000012251494 -0.2 0  1.000000001296183 -0.2 0  1.0250000013646 -0.2 0  1.050000001466665 -0.2 0  1.075000001557888 -0.2 0  1.100000001673038 -0.2 0  1.125000001762017 -0.2 0  1.150000001851744 -0.2 0  1.175000001947827 -0.2 0  1.200000002046153 -0.2 0  1.225000002155695 -0.2 0  1.25000000221813 -0.2 0  1.275000002244301 -0.2 0  1.300000002154947 -0.2 0  1.325000002108962 -0.2 0  1.350000002019609 -0.2 0  1.375000001973624 -0.2 0  1.400000001884271 -0.2 0  1.42500000182707 -0.2 0  1.450000001748932 -0.2 0  1.475000001659579 -0.2 0  1.500000001570226 -0.2 0  1.525000001480872 -0.2 0  1.550000001391519 -0.2 0  1.575000001345534 -0.2 0  1.60000000125618 -0.2 0  1.625000001210195 -0.2 0  1.650000001120842 -0.2 0  1.675000001066632 -0.2 0  1.700000000985504 -0.2 0  1.725000000905871 -0.2 0  1.750000000850165 -0.2 0  1.775000000760812 -0.2 0  1.800000000714827 -0.2 0  1.825000000625473 -0.2 0  1.85000000053612 -0.2 0  1.875000000446767 -0.2 0  1.900000000357413 -0.2 0  1.92500000026806 -0.2 0  1.950000000178707 -0.2 0  1.975000000089353 -0.2 0  2 -0.1758823529236379 0  2 -0.1517647057870068 0  2 -0.1276470586430415 0  2 -0.103529411528254 0  2 -0.07941176439513059 0  2 -0.05529411724717925 0  2 -0.03117647008918309 0  2 -0.007058822960843009 0  2 0.01705882406928105 0  2 0.0411764710640091 0  2 0.06529411804247409 0  2 0.08941176503720205 0  2 0.11352941203193 0  2 0.137647059026658 0  2 0.1617647060111818 0  2 0.185882353005272 0  1.974999999927471 0.21 0  1.949999999833257 0.21 0  1.924999999782412 0.21 0  1.899999999688198 0.21 0  1.874999999637353 0.21 0  1.849999999543139 0.21 0  1.824999999448926 0.21 0  1.799999999354712 0.21 0  1.774999999260499 0.21 0  1.749999999166286 0.21 0  1.724999999082914 0.21 0  1.699999998977859 0.21 0  1.674999998902712 0.21 0  1.649999998789432 0.21 0  1.624999998688863 0.21 0  1.599999998581938 0.21 0  1.574999998495201 0.21 0  1.549999998413699 0.21 0  1.524999998318364 0.21 0  1.499999998273501 0.21 0  1.474999998238357 0.21 0  1.449999998189755 0.21 0  1.424999998038714 0.21 0  1.399999997975905 0.21 0  1.37499999792992 0.21 0  1.349999997902628 0.21 0  1.324999997821126 0.21 0  1.299999997699994 0.21 0  1.274999997636438 0.21 0  1.249999997681301 0.21 0  1.224999997765794 0.21 0  1.199999997857764 0.21 0  1.174999997916835 0.21 0  1.149999998014039 0.21 0  1.124999998067875 0.21 0  1.09999999816508 0.21 0  1.074999998218916 0.21 0  1.049999998316121 0.21 0  1.02499999838865 0.21 0  0.999999998467161 0.21 0  0.9749999985209969 0.21 0 
[...]
<PointData  Scalars="pressure"> 
<DataArray  type="Float64"  Name="pressure"  format="ascii">-7.8432919584933436e-01  -7.7163815172964778e-01  -8.3691332316193379e-01  -9.9707329795342592e-01  -9.5316497786093901e-01  -8.0297017091384493e-01  4.2567280206806185e-01  6.5373206084270663e-02  0.0000000000000000e+00  0.0000000000000000e+00  -2.4546654512865532e-02  4.3299866185148705e-01  -7.7172544217390937e-01  -7.8238684474153108e-01  -1.0033566866765942e+00  -8.8436578685240996e-01  -8.4775394090181821e-01  -8.6183236650601913e-01  -8.6442490597758970e-01  -8.5541268877588617e-01  -8.3292299688979488e-01  -7.9385577206654434e-01  -7.4064566694587242e-01  -6.7361248411999608e-01  -5.8857825270374420e-01  -4.8633856317821716e-01  -3.6986002310782118e-01  -2.4341313261729561e-01  -1.0482335809661171e-01  4.9378254329796964e-02  2.0668807323575622e-01  3.7423152878948179e-01  5.4274254591888182e-01  7.0950204961878804e-01  8.8106932713572528e-01  1.0406671351261441e+00  1.1998758831435425e+00  1.3472916008113629e+00  1.4804873378345347e+00  1.6029375220756232e+00  1.7066513433515511e+00  1.7923968849561658e+00  1.8597486239263583e+00  1.9079211050165090e+00  1.9306097248175387e+00  1.9334814355970742e+00  1.9145558229385824e+00  1.8726661057883509e+00  1.8106626999264472e+00  1.7271829305763142e+00  1.6264059169426819e+00  1.5098102231482418e+00  1.3746434215112406e+00  1.2301253533997025e+00  1.0718165053285078e+00  9.0458735067730800e-01  7.3318015364305045e-01  5.5689384276224652e-01  3.8352394691868524e-01  2.1094379396147145e-01  3.7024223281915548e-02  -1.1734837216033413e-01  -2.7836631615566060e-01  -4.1646134356638137e-01  -5.4882265124556506e-01  -6.6200953229798520e-01  -7.6729233971294752e-01  -8.5144225025269116e-01  -9.2293785208571399e-01  -9.7860502238573721e-01  -1.0152102701698582e+00  -1.0405455491499727e+00  -1.0485181804227726e+00  -1.0486552744173447e+00  -1.0325745535792290e+00  -7.8227147967816191e-01  -7.4510290488200992e-01  -7.0774018676381856e-01  -6.7152237555870553e-01  -6.3742012123420955e-01  -6.0710703926932241e-01  -5.7944526161901544e-01  -5.5541470859112263e-01  -5.3424236079339416e-01  -5.1589293931101632e-01  -5.0033376029334353e-01  -4.8663494210354935e-01  -4.7545353649962141e-01  -4.6612274223458822e-01  -4.5790714448201419e-01  -4.5116463559909037e-01  -4.4517233266741207e-01  -4.3989732203679688e-01  -4.3484019741135516e-01  -4.3000457385289320e-01  -4.2542377619037358e-01  -4.2071020510543738e-01  -4.1597481378012818e-01  -4.1151459169862881e-01  -4.0700635795757217e-01  -4.0292338535727790e-01  -3.9933313742596793e-01  -3.9611247997543242e-01  -3.9377922887733940e-01  -3.9223699926395000e-01  -3.9147488616130516e-01  -3.9153971188956532e-01  -3.9241840871356892e-01  -3.9395030558258820e-01  -3.9615258565888811e-01  -3.9881498577642477e-01  -4.0176798031605587e-01  -4.0493388013634712e-01  -4.0814506285807733e-01  -4.1151471483290730e-01  -4.1481172333067323e-01  -4.1834505143710643e-01  -4.2212030105565090e-01  -4.2614434350087810e-01  -4.3120906007273024e-01  -4.3654347873397281e-01  -4.4399060955027403e-01  -4.5265924302852323e-01  -4.6294146843089656e-01  -4.7581413065812633e-01  -4.9082978534595517e-01  -5.0860539293309193e-01  -5.2926741235012176e-01  -5.5313474231607473e-01  -5.8049665350232305e-01  -6.1107206107126988e-01  -6.4504575808052267e-01  -6.8298225190341078e-01  -7.2146998031290832e-01  4.2502788493020527e-01  4.2413309170675589e-01  4.2212417700490201e-01  4.1915136164647993e-01  4.1438595687481394e-01  4.0746594154310672e-01  3.9750371413792585e-01  3.8406759666829632e-01  3.6590381331410349e-01  3.4280720510721430e-01  3.1401726380945166e-01  2.7847852215011948e-01  2.3859611951521090e-01  1.9257888765510314e-01  1.4409814719636643e-01  9.4279556385421348e-02  4.3462479908617367e-02  -3.1111458377308179e-03  -4.8065895780721429e-02  -8.7909170019614180e-02  -1.2226717017808038e-01  -1.5147786069039745e-01  -1.7494083042133363e-01  -1.9189333971638897e-01  -2.0317252998748273e-01  -2.0835492038155556e-01  -2.0910537301765603e-01  -2.0525100343527453e-01  -1.9439642431505894e-01  -1.8164618445140085e-01  -1.6236989320928324e-01  -1.3925877834440589e-01  -1.0911030742662134e-01  -7.6355691860811106e-02  -3.7451214531553603e-02  5.0308597266787135e-05  3.8027071094480190e-02  7.0237414952992364e-02  9.1440409039529894e-02  9.9249007511166568e-02  9.1449598296511336e-02  2.9876548153577868e-02  -5.1572671839496863e-03  -3.3139497771631853e-02  -4.3219194024666355e-02  -3.5965957957515907e-02  -1.4673888861012414e-02  1.4739318928327177e-02  4.2802587132304101e-02  6.5178812624920868e-02  7.9011763093402326e-02  8.5037187800754560e-02  8.6253238598004559e-02  8.6214108121527536e-02  8.6210689428786735e-02  8.6335019918712633e-02  8.5970572375791310e-02  8.4359634441171824e-02  8.0530114878348685e-02  7.4223474505160286e-02  6.6742396991037262e-02  5.9276929964099216e-02  5.2741762119499699e-02  4.7872437178958331e-02  4.3329742312904117e-02  3.8263562687657210e-02  3.1863739913999350e-02  2.3937914216160060e-02  1.6984467160255621e-02  1.1822882231053537e-02  1.1031510938380579e-02  1.3615317826127082e-02  2.0787409859588438e-02  2.9287128312635392e-02  3.7689942538324799e-02  4.4208022536087195e-02  4.7119557381196525e-02  4.6573316073909708e-02  4.2857796897118210e-02  3.6272013699031228e-02  2.7388068662974659e-02  1.8092334475821630e-02  9.2160883605910977e-03  2.0119415981944885e-03  -2.8197385969735964e-03  -5.7846038391196055e-03  -7.4906491518304235e-03  -8.7309196706478274e-03  -9.9028317088063408e-03  -1.1217582309737328e-02  -1.2394529802874404e-02  -1.2672369403920993e-02  -1.1970353838175161e-02  -9.9796270645586098e-03  -7.3214793642770110e-03  -4.6694284318668068e-03  -2.3737873035074649e-03  -8.6054076700783433e-04  0.0000000000000000e+00  0.0000000000000000e+00  0.0000000000000000e+00  0.0000000000000000e+00  0.0000000000000000e+00  0.0000000000000000e+00  0.0000000000000000e+00  0.0000000000000000e+00  0.0000000000000000e+00  0.0000000000000000e+00  0.0000000000000000e+00  0.0000000000000000e+00  0.0000000000000000e+00  0.0000000000000000e+00  0.0000000000000000e+00  0.0000000000000000e+00  -4.2074303113372761e-03  -8.3851262002783492e-03  -1.2024229246906919e-02  -1.3987438712181298e-02  -1.3746126718930819e-02  -1.1429983405526249e-02  -6.9318281783212815e-03  -1.6744333468806298e-03  3.8728034371682887e-03  8.7329209918183427e-03  1.2146801448366168e-02  1.3347111901241703e-02  1.2931044145505643e-02  1.0859372381289943e-02  7.7256549090523995e-03  4.6958287011933464e-03  2.2917729405130204e-03  1.6085505353355578e-03  2.3061801487909554e-03  4.0535936330765654e-03  6.5794414362402428e-03  9.4312879137992758e-03  1.2615566460269722e-02  1.6508898380277165e-02  2.2335193991058811e-02  3.0105714891695060e-02  3.9218802133194910e-02  4.9236173858683493e-02  5.7386165708969698e-02  6.2914027302922629e-02  6.5711265942610494e-02  6.4181889729013633e-02  5.9855875557106600e-02  5.3819561220778127e-02  4.8665960336306310e-02  4.5287250220372666e-02  4.5691819001531804e-02  4.9519061054009030e-02  5.4607387103473355e-02  5.6647919405611508e-02  5.3021849497308302e-02  4.2667891163004554e-02  2.7888565023577547e-02  1.4667181104266826e-02  7.1910248549234834e-03  1.0214385423890446e-02  2.5658774549429518e-02  4.9577977294883682e-02  7.9588865979982576e-02  1.0968454682405207e-01  1.3239432969637654e-01  1.4590579840958484e-01  1.4453264647093036e-01  1.2960118308675522e-01  1.0259765910203947e-01  6.4032470880764816e-02  2.0605119025458848e-02  -6.5890970805394425e-02  -9.4090164246049129e-02  -1.1187838464374385e-01  -1.1824602847955246e-01  -1.1486166743467803e-01  -1.0822131086771929e-01  -1.0107214896300905e-01  -9.6882402305744617e-02  -9.5569575970958789e-02  -9.8241519041226022e-02  -1.0296205612246291e-01  -1.0917796927706463e-01  -1.1545008795699267e-01  -1.2074811654370828e-01  -1.2458909759340869e-01  -1.2302909269223465e-01  -1.1928379286482539e-01  -1.0811558022480677e-01  -9.4508535746611153e-02  -7.2696064727950177e-02  -4.6127019926915758e-02  -1.5670050343396962e-02  2.1755366606998169e-02  6.1092281508487105e-02  1.0335492016487526e-01  1.4693354093399016e-01  1.8999817046742548e-01  2.3118218414642097e-01  2.6975837992627549e-01  3.0397663816094278e-01  3.3309341065918818e-01  3.5820298365295761e-01  3.7810148158634010e-01  3.9363774921709466e-01  4.0598706632631126e-01  4.1494095535002118e-01  4.2158247136323596e-01  4.2622486661017855e-01  4.2932233672865389e-01  4.3122818951010955e-01  4.3231363668266670e-01  4.3286236136415529e-01  4.3384348947821511e-01  4.3736056359434095e-01  4.4456390859189454e-01  4.5629873599941895e-01  4.7336240040444105e-01  4.9583370079912192e-01  5.2354709198536842e-01  5.5591843678647590e-01  5.9201259280520901e-01  6.2969501640269643e-01  6.6739525076888617e-01  7.0224395970212539e-01  7.3132522137685585e-01  7.5340146528230745e-01  7.6537850761566495e-01  7.6676313142627084e-01  7.5678449580390561e-01  7.3667265967808138e-01  7.0769292941525297e-01  6.7328834142907701e-01  6.3486018943192257e-01  5.9548531319900722e-01  5.5748477075806613e-01  5.2307346787746811e-01  4.9323997501886419e-01  4.6905085999046620e-01  4.5068446006215490e-01  4.3788731623451155e-01  4.3039054527412096e-01  4.2641491396379638e-01  4.2553910762625813e-01  7.0972067221032442e-02  7.9610105778958010e-02  8.3682239661269475e-02  7.2870641459333876e-02  4.4027890926838488e-02  2.1492228740779601e-04  -1.5060513817131563e-02  1.2398480330141962e-02  6.9025511208315599e-02  1.0562949919480721e-01  8.8822653691176867e-02  4.2328645638535785e-02  1.0305301639776687e-03  -2.2826521044277168e-02  -3.1352550239629212e-02  -2.8414752848460956e-02  3.6080448171406543e-02  -1.3498655429040473e-02  -1.2189662924601051e-02  7.3551435905348905e-02  -2.6303861854156844e-02  4.6756377736382103e-02  4.8824117381943623e-02  1.5557458192478836e-02  -6.7661415442635880e-03  -2.8210511395766417e-02  5.7182385048264422e-02  1.7970963330326571e-02  8.9905440482022612e-03  5.1157323015567212e-02  2.9277290951182925e-02  7.0804150506433322e-02  -1.5054067408979554e-02  1.3165196936178106e-01  -3.8110837405893494e-02  -2.2370292394089424e-02  2.8246381266785060e-02  2.0774178169692448e-02  5.0898332057398897e-03  -5.5692057602040228e-03  1.0485129536391639e-01  4.2575896389260300e-02  3.6160269321346125e-02  6.4410573099122154e-02  1.0617501797973582e-01  -1.3017279745915121e-02  6.3569586796569655e-03  5.4445473726788055e-02  -1.3744054448761594e-02  -1.0328130963539860e-02  -5.0531372288517361e-02  -3.5544540148916601e-02  -9.8912993963365531e-02  3.2563749022908005e-03  2.4120271973157567e-02  -6.2545989817968028e-03  1.0100117805945823e-02  1.7729325726971588e-02  1.1074893515349432e-03  4.4733602306264726e-02  5.2367641122978342e-02  2.6800631152890269e-03  1.0583024963041127e-01  -3.3834291861582714e-03  -5.6518881523083542e-02  -1.5669427208591963e-02  8.7821204873290509e-02  4.5531915785828644e-02  1.1101984834546795e-02  -9.5716821761061156e-03  7.9459084913417188e-02  7.3178132915744792e-02  3.9057822045825426e-02  5.9819434034384965e-02  2.4191615235448712e-02  4.4313197758691060e-02  -1.1781891875214502e-02  -7.2427448088260393e-04  8.6052850807862812e-03  -8.1979614908238158e-03  8.3733842521477420e-02  1.6227381578774583e-02  -3.5902473411478814e-02  8.2324530825490206e-05  2.5320046562553551e-02  1.9089410285727186e-02  8.8213756677711294e-02  1.2808335980895723e-02  3.9709987073772178e-02  1.6309129632581396e-01  -1.5441717867617558e-02  -2.3573849223652535e-02  -1.2462996112463553e-02  9.3120801094668353e-03  7.6366702001395337e-02  3.1911386311456930e-02  5.0617281265961329e-02  3.4912157957644914e-02  -6.1965695567772685e-05  -3.7455834743617758e-02  9.1485771630958682e-02  -1.5624234752420498e-02  5.9642620332906203e-02  -3.2908998628383264e-02  3.0507438600605067e-02  -7.8973443257695179e-03  -3.3560530036273687e-03  1.1631912966376305e-01  -6.9706112858309065e-03  4.7140441165611738e-02  -7.5135281064109948e-03  3.7589526961870699e-02  -2.1538628590979336e-02  -4.3052952226450523e-03  5.5974981132582431e-02  7.3111355545153439e-02  1.0664825030155058e-02  9.2890381987526460e-04  2.0195322811066806e-02  2.3456454146774573e-02  5.3664182305394270e-02  7.8943280594159379e-02  -2.0711301198635918e-02  -4.6208258416931287e-03  8.9643098613374619e-02  4.0730370639543205e-02  5.0974626534568600e-02  4.4215348772027423e-02  6.1924249077061677e-02  7.5891367629230530e-02  -1.0985183946669152e-02  6.8006603206231756e-03  7.3776688471146490e-02  2.6260074569834587e-02  1.0031177139988304e-02  6.4389895075139383e-02  3.7399159660434634e-03  1.0327115672234330e-02  1.4713049762736574e-01  -9.5032299896440943e-03  -1.6769568070698251e-02  -6.0642367334503192e-02  6.4096078299888823e-02  1.0066091802403344e-02  2.4731469011916810e-02  1.0450961915619958e-03  -2.1513042577725940e-02  2.1235559061228471e-02  -7.4598338936180666e-03  1.4838886709728527e-02  -1.4329142459681428e-02  -1.3050990726874775e-03  1.5858076622670702e-02  5.6927607947396146e-02  1.9339197976519118e-02  4.5904714993628741e-02  1.5355778612549322e-03  -1.0912930771530608e-02  7.2940846956040042e-02  -1.0182460683602901e-02  1.6109961630193126e-02  -2.1824403684350568e-02  6.1961275017910961e-02  8.4469127121933931e-05  -5.9798999061147860e-03  1.6138371260479561e-03  -1.3076113869109864e-02  3.6252518848317990e-02  2.1234778051091543e-02  3.8920146615225075e-02  2.8968124757466466e-02  8.6200979015675874e-02  5.0602634564723354e-03  -5.4200719626304869e-03  4.9758421671754427e-02  6.8098868842811598e-03  8.9049326243332588e-02  9.4183737497566866e-02  8.5090740319519895e-02  3.4261205193659321e-02  1.4519504152751763e-02  4.8539860279609340e-02  1.5194515945206502e-01  -1.3433785279976115e-02  6.0939386279984041e-02  -7.0144897209870993e-02  -2.7758370445738059e-02  3.6008206054557172e-02  2.5289014731188459e-02  4.6978045478699555e-02  8.9442247330599439e-02  -1.2108591860980096e-02  -9.3711215766261197e-03  1.2841726503191828e-02  3.0596435780718249e-02  5.1006803877244378e-02  4.5101653094745557e-02  -1.4492423446309998e-03  6.1733522149302229e-03  -7.7633190147071811e-03  -3.0588133684877417e-03  1.3561701124440198e-02  -1.2149175877333438e-03  4.9575969193496390e-02  1.3009673589166377e-02  -2.8005589202046700e-02  1.5398092429279834e-02  7.5169615380057994e-02  -2.6320818477474972e-02  -3.0043639228793214e-02  -2.2712779946297980e-02  -5.9063375168607315e-03  -7.5585070569401905e-02  5.9523466988273467e-02  -8.6893850588772338e-03  4.8624716011955629e-02  5.4573633157482246e-02  9.9962371666981638e-03  -1.3535716077648580e-02  2.6877657489039128e-02  1.3218030524276950e-01  -4.0460398088868433e-03  1.8091353982002574e-02  -6.5718630536486022e-02  7.2441602202410166e-02  6.2350639830065207e-03  -7.5367639935296285e-03  -1.3305546526550355e-02  8.1091550234486068e-02  4.0413806738325876e-02  -2.8045649833686941e-02  5.3862400982328978e-04  2.8290603659377998e-02  4.8050689674982485e-04  1.1025419544340540e-01  -4.5708983700328762e-03  -2.1166606946763335e-02  -5.5606911976203030e-02  -9.1522031030114935e-06  -7.9151663274166055e-03  -1.1728809475658181e-02  6.6159076279390827e-02  3.8940915142108200e-02  4.6424975068371073e-02  7.1252499032943700e-03  -1.0387516985686679e-02  1.4578655822878098e-04  7.6175336212661714e-03  9.9303172939355436e-03  7.3614571723857325e-02  2.4383778839974397e-02  -1.2863352166263173e-02  -6.5916204229840111e-02  1.5558438705820521e-01  -1.9890488197865590e-02  1.3093745989905052e-02  8.6638911614923014e-02  4.9834122555553570e-02  -2.0774459073420803e-02  3.8653506172217099e-02  4.1461439435055165e-03  -1.2969911456283702e-02  -8.4277211300605309e-03  6.7130012339884540e-02  4.8274927968118136e-02  4.2136382046882945e-03  2.7479173120818598e-03  -3.3305619876979518e-02  5.4252231217019047e-02  4.7433531009050657e-02  1.1907937781277071e-02  3.2009765368270438e-02  8.5591560288612853e-02  -9.1430745731365618e-03  -2.4205422637024760e-03  1.1218234954073350e-02  4.1617875499303264e-02  1.1072672001228243e-01  -5.2265773203310929e-03  -4.7452129754498876e-02  -1.4123116814166494e-02  9.5366979187770901e-02  -3.1513069889196718e-03  6.9379473859105256e-02  2.1388746853744586e-02  1.7316196998436059e-02  9.9628044978629815e-02  6.4394173228963625e-02  1.0524385395620554e-02  -2.6361597756064118e-02  2.1363795629902076e-02  -3.0117266258345203e-02  4.0654892673083975e-02  4.0495860116499895e-02  -1.7898410500292780e-04  7.3212373848153919e-02  7.8077797203138066e-02  5.0791389632731630e-02  -2.3937677299630530e-02  4.9427203442673630e-02  7.4578909432042734e-02  2.7146661199475286e-02  4.3185433953661687e-02  2.4679850430873009e-04  1.7723382056211916e-02  3.9919945975596900e-02  -6.7785661294472470e-03  -3.7495158296106827e-02  -6.5468358353202452e-03  5.6351992078110431e-02  5.6062704886059439e-02  5.4316534943273834e-02  2.4959595788959471e-03  1.5473117471262798e-01  -1.2899095001342859e-02  -2.6583287913239780e-02  -1.2801457147140352e-02  9.8013993819994344e-02  1.2087217091194516e-03  2.3955648842122596e-03  5.0497420158069427e-02  7.2345053718331970e-02  4.5367893371914027e-02  7.7075644722640793e-02  1.3745882185727257e-01  -1.5580497841267426e-02  -2.7212209346924002e-03  3.2285775449533580e-02  -2.7499779874598316e-02  1.0461775938556030e-01  -5.1437878572564689e-04  -1.1064134988859142e-02  2.8545969575177160e-02  1.0490016941876185e-01  5.5683093945414423e-02  4.1470783084631660e-02  -2.7131797717231326e-02  1.2703381525812744e-02  4.9202444072386609e-02  6.1685525761686157e-02  -2.2212669691728647e-02  -6.6579383534596482e-03  3.9459745796121243e-02  4.3595094886641393e-02  1.5613441097494139e-03  3.6327392991932446e-02  1.0031010657226953e-02  -1.0734815748110286e-02  3.6929864585405661e-02  1.2565206670196349e-01  -1.6297203215494448e-02  1.3522925428769123e-02  -5.9821243906865050e-03  -4.8056265330593826e-03  -1.1117238016624573e-02  5.5131919681415571e-02  2.2093386200022529e-02  6.6542669842560909e-02  -1.0155737979231444e-01  -5.6633660590693018e-02  4.9721060013752823e-02  1.1163318485975104e-02  1.2452793766488523e-03  2.4412499644683623e-02  2.8176739641571663e-02  7.0798350272892451e-03  -2.3642665066235255e-03  5.5174260359364222e-02  1.0445878819235857e-01  -2.3886011321348637e-02  -2.6316211031818444e-03  3.4585663979073262e-03  6.7334642688696905e-02  5.1997437374138117e-02  6.5923311821594166e-02  3.7042502614221359e-02  3.6495401124418091e-02  8.9214131676138043e-03  1.8785101116197345e-02  2.4973849788738251e-02  -2.0205179294846388e-04  2.1277355145347402e-02  -5.2305772273542042e-03  -2.9442643772102425e-02  5.4497742780176023e-02  -7.9538566004741466e-03  1.3947377077827573e-02  1.3112052176415919e-02  9.3639780888926175e-03  3.8503850173112544e-02  2.1875022673256220e-04  2.2615518991112027e-02  -7.3483641661216742e-03  -1.1344673543009344e-02  1.2909920872139596e-01  -4.5831999817761071e-03  1.1741801666578367e-02  6.5042414396676185e-02  1.1637294047473405e-03  7.0568854744742157e-02  3.8428703866901150e-02  5.4929918961359785e-02  -1.0700900888253527e-02  2.8543570614424130e-02  3.4084500475438394e-02  1.8795107604267457e-02  8.6071687395393753e-02  4.9922849690817513e-02  -1.8700774446641564e-02  -3.2268365741506634e-02  6.1921442912028384e-02  5.5914421810496932e-02  2.0117899171874679e-02  2.0651954538877481e-02  -3.1120110271138863e-03  4.0922060187335622e-02  3.2476781032671734e-03  4.6426859504336377e-03  1.5022817520633704e-03  8.4330976669820992e-02  3.2979293194354011e-03  5.9224009265230262e-02  1.3220038272941415e-01  -2.0166975505661853e-02  -6.7915163899303355e-03  -7.5475029821969436e-02  8.6067370203007754e-02  7.1884724529733532e-02  7.4755087674488171e-02  -7.0331396470495909e-03  8.6688232015530553e-02  5.8937999396442370e-02  6.1125721756414512e-03  5.4774644758592672e-02  1.5763191997753131e-03  -1.2024880219974462e-02  9.9353605229025990e-02  -2.5333117468910216e-03  1.3769959872959