<?xml version="1.0"?>
<VTKFile type="UnstructuredGrid"  version="0.1"  >
<UnstructuredGrid>
<Piece  NumberOfPoints="4820" NumberOfCells="9262">
<Points>
<DataArray  type="Float64"  NumberOfComponents="3"  format="ascii">0.004357787137382907 0.04980973490458728 0  3.061616997868383e-18 0.05 0  -0.004357787137382901 0.04980973490458728 0  -0.004357787137382912 -0.04980973490458728 0  -9.184850993605149e-18 -0.05 0  0.004357787137382894 -0.04980973490458728 0  -0.2 -0.2 0  0.55 -0.2 0  2 -0.2 0  2 0.21 0  0.55 0.21 0  -0.2 0.21 0  0.002180969358710071 0.04995241107951016 0  -0.002180969376377175 0.04995241107873878 0  -0.00218096936205605 -0.04995241107936408 0  0.002180969376762267 -0.04995241107872198 0  -0.00681459716460041 0.04953343583362881 0  -0.009254746165878699 0.04913603233275104 0  -0.01167226821331763 0.04861849601495686 0  -0.01406125270101674 0.04798209220613614 0  -0.01641585879600313 0.04722837685110179 0  -0.01873032971283131 0.04635919271135586 0  -0.02099900679895535 0.04537666485604058 0  -0.02321634335656028 0.04428319547131056 0  -0.02537691821523419 0.04308145798249308 0  -0.02747544897576464 0.04177439052314415 0  -0.0295068049360126 0.04036518874560236 0  -0.03146601963036187 0.03885729800979068 0  -0.03334830296690066 0.03725440496408185 0  -0.03514905295182857 0.03556042852089316 0  -0.03686386691867947 0.03377951029547187 0  -0.03848855232085789 0.03191600445301051 0  -0.04001913696023074 0.02997446708380811 0  -0.04145187870654155 0.02795964505672717 0  -0.04278327464009846 0.02587646442367869 0  -0.04401006963121561 0.02373001835346012 0  -0.04512926428658137 0.02152555469556806 0  -0.04613812228218922 0.0192684631528764 0  -0.04703417705848439 0.01696426209509693 0  -0.04781523785065199 0.0146185850644164 0  -0.04847939503850856 0.01223716702101564 0  -0.04902502482533359 0.009825830289366174 0  -0.04945079319725205 0.00739047036139188 0  -0.04975565919278197 0.004937041451287537 0  -0.04993887744399172 0.002471541954727039 0  -0.05000000000000002 -2.179027782864273e-10 0  -0.04993887742290181 -0.002471542380860383 0  -0.04975565915220143 -0.004937041860259632 0  -0.04945079313853181 -0.007390470754298181 0  -0.04902502474990915 -0.009825830665689136 0  -0.04847939494791073 -0.01223716737993267 0  -0.04781523774597484 -0.01461858540679994 0  -0.04703417694176702 -0.01696426241870103 0  -0.04613812215449838 -0.01926846345863071 0  -0.04512926414810409 -0.02152555498589172 0  -0.04401006948618459 -0.02373001862243695 0  -0.04278327448542859 -0.02587646467940464 0  -0.04145187854660255 -0.0279596452938465 0  -0.04001913680095092 -0.02997446729646378 0  -0.03848855215910903 -0.03191600464806871 0  -0.03686386675419343 -0.0337795104749769 0  -0.03514905278746659 -0.03556042868335375 0  -0.0333483028093871 -0.0372544051050802 0  -0.03146601947545011 -0.03885729813523576 0  -0.02950680478964417 -0.04036518885259716 0  -0.02747544883924331 -0.04177439061293563 0  -0.0253769180845661 -0.04308145805946247 0  -0.02321634324304243 -0.04428319553082456 0  -0.02099900669895044 -0.04537666490231995 0  -0.01873032963061061 -0.04635919274457518 0  -0.01641585872377311 -0.04722837687620784 0  -0.01406125264610136 -0.04798209222222922 0  -0.01167226817214395 -0.04861849602484179 0  -0.009254746140787012 -0.04913603233747704 0  -0.006814597153124481 -0.04953343583520761 0  0.006814597163087254 -0.04953343583383697 0  0.009254746162416328 -0.04913603233340317 0  0.01167226820749043 -0.04861849601635584 0  0.01406125269526824 -0.04798209220782076 0  0.01641585878869484 -0.04722837685364205 0  0.01873032970478165 -0.04635919271460813 0  0.02099900678940205 -0.04537666486046157 0  0.02321634334324823 -0.04428319547828967 0  0.02537691819928517 -0.04308145799188777 0  0.02747544895679411 -0.04177439053562125 0  0.02950680491571239 -0.04036518876044175 0  0.03146601960788315 -0.03885729802799359 0  0.03334830294823126 -0.03725440498079377 0  0.03514905293079007 -0.03556042854168828 0  0.03686386690162479 -0.03377951031408381 0  0.03848855230703181 -0.03191600446968382 0  0.04001913694627814 -0.02997446710243633 0  0.04145187869083342 -0.02795964508001545 0  0.04278327462632659 -0.02587646444644864 0  0.04401006962056583 -0.02373001837321138 0  0.04512926427712953 -0.02152555471538427 0  0.04613812227399118 -0.01926846317250652 0  0.04703417705106056 -0.01696426211567986 0  0.04781523784312168 -0.01461858508904696 0  0.04847939503319636 -0.01223716704206073 0  0.04902502482144694 -0.009825830308758294 0  0.04945079319422288 -0.007390470381660498 0  0.0497556591909245 -0.004937041470007301 0  0.04993887744294273 -0.002471541975922472 0  0.05000000000000002 1.960026680888904e-10 0  0.04993887742406512 0.002471542357355427 0  0.0497556591543939 0.004937041838163785 0  0.04945079314184119 0.007390470732154637 0  0.04902502475403982 0.009825830645079567 0  0.04847939495309415 0.01223716735939779 0  0.04781523775084436 0.01461858539087247 0  0.04703417694693356 0.01696426240437658 0  0.04613812215952091 0.01926846344660432 0  0.04512926415455419 0.02152555497236883 0  0.04401006949386337 0.02373001860819578 0  0.04278327450092428 0.0258764646537846 0  0.04145187856220046 0.02795964527072164 0  0.04001913681616228 0.02997446727615497 0  0.03848855217730672 0.03191600462612355 0  0.03686386677147228 0.03377951045612033 0  0.03514905280168957 0.03556042866929533 0  0.0333483028196165 0.03725440509592335 0  0.03146601948352148 0.03885729812869969 0  0.02950680480117144 0.04036518884417076 0  0.02747544884918156 0.04177439060639914 0  0.02537691809390653 0.04308145805396053 0  0.02321634324922249 0.04428319552758454 0  0.02099900670813883 0.04537666489806784 0  0.01873032963827596 0.04635919274147818 0  0.01641585873206496 0.04722837687332573 0  0.01406125264532184 0.04798209222245766 0  0.01167226817007835 0.04861849602533769 0  0.009254746139683721 0.04913603233768484 0  0.006814597151967234 0.04953343583536681 0  -0.1875196675247935 -0.2 0  -0.1748316574073939 -0.2 0  -0.1619325191073485 -0.2 0  -0.1488187266915765 -0.2 0  -0.1354867190390691 -0.2 0  -0.1219328601465505 -0.2 0  -0.1081534589822707 -0.2 0  -0.09414476550972861 -0.2 0  -0.07990295838040007 -0.2 0  -0.06542416251428446 -0.2 0  -0.05070442829752772 -0.2 0  -0.03573975778997357 -0.2 0  -0.02052606446908414 -0.2 0  -0.005059208186730002 -0.2 0  0.0106650220181323 -0.2 0  0.02665090828184707 -0.2 0  0.04290281009001662 -0.2 0  0.05942514756265038 -0.2 0  0.07622242703544463 -0.2 0  0.09329921759985482 -0.2 0  0.110660176225582 -0.2 0  0.1283100240439488 -0.2 0  0.146253576648871 -0.2 0  0.1644957213272042 -0.2 0  0.1830414174264912 -0.2 0  0.2018957247245375 -0.2 0  0.2210637776854531 -0.2 0  0.2405507899571802 -0.2 0  0.2603620802338072 -0.2 0  0.2805030369240936 -0.2 0  0.3009791461642926 -0.2 0  0.3217959913512258 -0.2 0  0.3429592352388189 -0.2 0  0.3644746444814039 -0.2 0  0.3863480802046066 -0.2 0  0.4085854997083186 -0.2 0  0.4311929582382759 -0.2 0  0.4541766169094176 -0.2 0  0.4775427325114808 -0.2 0  0.5012976686781503 -0.2 0  0.5254479007761028 -0.2 0  0.5750000000714078 -0.2 0  0.6000000001173931 -0.2 0  0.6250000002059986 -0.2 0  0.6500000002385247 -0.2 0  0.675000000336103 -0.2 0  0.7000000003686291 -0.2 0  0.7250000004542437 -0.2 0  0.7500000005062106 -0.2 0  0.7750000005716368 -0.2 0  0.8000000006490264 -0.2 0  0.8250000006890297 -0.2 0  0.8500000007910944 -0.2 0  0.8750000008565204 -0.2 0  0.9000000009518555 -0.2 0  0.9250000010408349 -0.2 0  0.9500000011343006 -0.2 0  0.9750000012251494 -0.2 0  1.000000001296183 -0.2 0  1.0250000013646 -0.2 0  1.050000001466665 -0.2 0  1.075000001557888 -0.2 0  1.100000001673038 -0.2 0  1.125000001762017 -0.2 0  1.150000001851744 -0.2 0  1.175000001947827 -0.2 0  1.200000002046153 -0.2 0  1.225000002155695 -0.2 0  1.25000000221813 -0.2 0  1.275000002244301 -0.2 0  1.300000002154947 -0.2 0  1.325000002108962 -0.2 0  1.350000002019609 -0.2 0  1.375000001973624 -0.2 0  1.400000001884271 -0.2 0  1.42500000182707 -0.2 0  1.450000001748932 -0.2 0  1.475000001659579 -0.2 0  1.500000001570226 -0.2 0  1.525000001480872 -0.2 0  1.550000001391519 -0.2 0  1.575000001345534 -0.2 0  1.60000000125618 -0.2 0  1.625000001210195 -0.2 0  1.650000001120842 -0.2 0  1.675000001066632 -0.2 0  1.700000000985504 -0.2 0  1.725000000905871 -0.2 0  1.750000000850165 -0.2 0  1.775000000760812 -0.2 0  1.800000000714827 -0.2 0  1.825000000625473 -0.2 0  1.85000000053612 -0.2 0  1.875000000446767 -0.2 0  1.900000000357413 -0.2 0  1.92500000026806 -0.2 0  1.950000000178707 -0.2 0  1.975000000089353 -0.2 0  2 -0.1758823529236379 0  2 -0.1517647057870068 0  2 -0.1276470586430415 0  2 -0.103529411528254 0  2 -0.07941176439513059 0  2 -0.05529411724717925 0  2 -0.03117647008918309 0  2 -0.007058822960843009 0  2 0.01705882406928105 0  2 0.0411764710640091 0  2 0.06529411804247409 0  2 0.08941176503720205 0  2 0.11352941203193 0  2 0.137647059026658 0  2 0.1617647060111818 0  2 0.185882353005272 0  1.974999999927471 0.21 0  1.949999999833257 0.21 0  1.924999999782412 0.21 0  1.899999999688198 0.21 0  1.874999999637353 0.21 0  1.849999999543139 0.21 0  1.824999999448926 0.21 0  1.799999999354712 0.21 0  1.774999999260499 0.21 0  1.749999999166286 0.21 0  1.724999999082914 0.21 0  1.699999998977859 0.21 0  1.674999998902712 0.21 0  1.649999998789432 0.21 0  1.624999998688863 0.21 0  1.599999998581938 0.21 0  1.574999998495201 0.21 0  1.549999998413699 0.21 0  1.524999998318364 0.21 0  1.499999998273501 0.21 0  1.474999998238357 0.21 0  1.449999998189755 0.21 0  1.424999998038714 0.21 0  1.399999997975905 0.21 0  1.37499999792992 0.21 0  1.349999997902628 0.21 0  1.324999997821126 0.21 0  1.299999997699994 0.21 0  1.274999997636438 0.21 0  1.249999997681301 0.21 0  1.224999997765794 0.21 0  1.199999997857764 0.21 0  1.174999997916835 0.21 0  1.149999998014039 0.21 0  1.124999998067875 0.21 0  1.09999999816508 0.21 0  1.074999998218916 0.21 0  1.049999998316121 0.21 0  1.02499999838865 0.21 0  0.999999998467161 0.21 0  0.9749999985209969 0.21 0 
[...]
<PointData  Scalars="pressure"> 
<DataArray  type="Float64"  Name="pressure"  format="ascii">-7.7731710110941876e-01  -8.4315260117472701e-01  -8.9493700015254440e-01  -9.1185797600416152e-01  -8.5392785858996745e-01  -7.8617250599185884e-01  4.5713562092217852e-01  1.4215536812988980e-01  0.0000000000000000e+00  0.0000000000000000e+00  -6.9090413359056982e-02  4.3005479891992332e-01  -8.0991849333887678e-01  -8.7193408695534669e-01  -8.8435974267866424e-01  -8.1957491542447947e-01  -9.1743200429941485e-01  -9.2995760581564446e-01  -9.3064438701383989e-01  -9.1956724876658102e-01  -8.9445189576878970e-01  -8.5259442014020248e-01  -7.9647747017963832e-01  -7.2644073713718216e-01  -6.3829288634928849e-01  -5.3287377538628145e-01  -4.1314754076649102e-01  -2.8371424954746666e-01  -1.4206783963999595e-01  1.5333532418709047e-02  1.7558586540711268e-01  3.4623936810297784e-01  5.1770380441228669e-01  6.8739467531658793e-01  8.6202344407696907e-01  1.0245073404663869e+00  1.1867802714332403e+00  1.3372375008279458e+00  1.4734429212740878e+00  1.5989990900465179e+00  1.7058188161046277e+00  1.7946551665645638e+00  1.8651962949759544e+00  1.9165590938422661e+00  1.9424190542771640e+00  1.9484789130184605e+00  1.9327398575649366e+00  1.8940374154734674e+00  1.8351704489095204e+00  1.7548472535284769e+00  1.6571527432336715e+00  1.5435719303626090e+00  1.4114451307249685e+00  1.2698614771653252e+00  1.1145103154015139e+00  9.5022492362840716e-01  7.8169883021976339e-01  6.0829692865826079e-01  4.3775080983067433e-01  2.6799386794105878e-01  9.7070933563305234e-02  -5.4709234594204140e-02  -2.1250111589113196e-01  -3.4782521214447515e-01  -4.7718809008342938e-01  -5.8744836895246977e-01  -6.8966579681763884e-01  -7.7089832128978020e-01  -8.3939202168788285e-01  -8.9223061003038928e-01  -9.2614156717749951e-01  -9.4895826608229938e-01  -9.5481358787615433e-01  -9.5291466372260147e-01  -9.3596813541083546e-01  -7.4379334275181941e-01  -7.0434357851648810e-01  -6.6611435174417488e-01  -6.3007545592782177e-01  -5.9665615408412787e-01  -5.6743983847716084e-01  -5.4102851854080847e-01  -5.1835083892806066e-01  -4.9859767536480215e-01  -4.8163707012505641e-01  -4.6750842859526126e-01  -4.5520271460317824e-01  -4.4537660963044051e-01  -4.3735877917063110e-01  -4.3039923932016688e-01  -4.2482899788900369e-01  -4.1993388359438460e-01  -4.1567010042934732e-01  -4.1155872045291592e-01  -4.0761548024005617e-01  -4.0388914767437045e-01  -4.0002965318489869e-01  -3.9617228767777551e-01  -3.9261792041767474e-01  -3.8907389057829400e-01  -3.8600718975953474e-01  -3.8353122284271174e-01  -3.8147061247413810e-01  -3.8035986651227044e-01  -3.8008440170406704e-01  -3.8061315371922050e-01  -3.8197475859795282e-01  -3.8412655055348971e-01  -3.8689130030404101e-01  -3.9027239129221508e-01  -3.9405017878429016e-01  -3.9806434206771890e-01  -4.0223983227765170e-01  -4.0640839256277256e-01  -4.1072314069804855e-01  -4.1495643276447153e-01  -4.1944211132818088e-01  -4.2421383326558293e-01  -4.2927764518366440e-01  -4.3547400645669615e-01  -4.4194989903686982e-01  -4.5060590656586896e-01  -4.6054487289306917e-01  -4.7209931767136204e-01  -4.8626210374756107e-01  -5.0260154589482975e-01  -5.2166171434251718e-01  -5.4361572123197066e-01  -5.6865430674895789e-01  -5.9705855598658941e-01  -6.2840253640500521e-01  -6.6246684818468637e-01  -6.9944823384779486e-01  -7.3686755314413888e-01  4.5647749404386873e-01  4.5556553413344353e-01  4.5357250568267676e-01  4.5066184568139872e-01  4.4605230981291738e-01  4.3940827570579094e-01  4.2989144337310242e-01  4.1708246121333270e-01  3.9975068479649861e-01  3.7767297508779152e-01  3.5004579270349551e-01  3.1581665785270341e-01  2.7722093606770837e-01  2.3250921349152570e-01  1.8519269217157766e-01  1.3635386241115779e-01  8.6388036051548545e-02  4.0478406979890726e-02  -3.8788085758138528e-03  -4.3237442013046440e-02  -7.7113806516329875e-02  -1.0594204940809267e-01  -1.2916735185679581e-01  -1.4625539777528326e-01  -1.5831128037505413e-01  -1.6524267388027405e-01  -1.6901232247594183e-01  -1.6972872742508319e-01  -1.6673057089448234e-01  -1.6388156653510499e-01  -1.5869819977867056e-01  -1.5239362860914202e-01  -1.4376041159380160e-01  -1.3134295703869939e-01  -1.1253927932886915e-01  -8.6987964567665610e-02  -5.0970749525050048e-02  -8.7086850198549604e-03  3.6185471624725914e-02  8.1912985025508922e-02  1.1864345724656099e-01  1.4982179692029790e-01  1.3732347293654806e-01  1.0982267161806721e-01  7.6307379718272672e-02  4.2500866368492818e-02  1.8088088032342867e-02  9.4575877541763480e-03  1.3242121431171667e-02  2.8401912422488407e-02  4.6413289154611514e-02  6.1732279431180336e-02  7.0460750997215979e-02  7.2506034454620630e-02  7.0525518798071465e-02  7.0244833988926558e-02  7.3896561778435982e-02  8.1485824814308896e-02  9.0492404256258818e-02  9.9782251897541821e-02  1.0557573725191739e-01  1.0781556244504517e-01  1.0575043941115794e-01  1.0044012378561985e-01  9.1440537923186210e-02  8.1013717957213266e-02  6.9741048517228468e-02  5.7398087863425991e-02  4.5670819648708505e-02  3.4041347695251509e-02  2.4604063129841227e-02  1.7940707158042843e-02  1.9096985412920920e-02  2.6155963850330730e-02  4.1329474141578545e-02  5.9800998684775189e-02  7.5561133384269341e-02  8.6422220357861207e-02  8.9383622185965531e-02  8.5087001605777840e-02  7.5093345600899586e-02  6.2332490890560296e-02  4.7827720310736586e-02  3.3237103008680616e-02  1.8664674408219204e-02  4.6797135682440831e-03  -8.1911577292399073e-03  -1.8497128158102588e-02  -2.2995851617812139e-02  -2.1353079842368838e-02  -1.3241060245348933e-02  4.0466148417434624e-04  1.6688352289862398e-02  3.0548932157345381e-02  3.9221428352904153e-02  3.9488475503692250e-02  3.1576204592693113e-02  1.7860140794897332e-02  0.0000000000000000e+00  0.0000000000000000e+00  0.0000000000000000e+00  0.0000000000000000e+00  0.0000000000000000e+00  0.0000000000000000e+00  0.0000000000000000e+00  0.0000000000000000e+00  0.0000000000000000e+00  0.0000000000000000e+00  0.0000000000000000e+00  0.0000000000000000e+00  0.0000000000000000e+00  0.0000000000000000e+00  0.0000000000000000e+00  0.0000000000000000e+00  -6.4929146574629112e-03  -1.0100917763852402e-02  -9.5075283419531840e-03  -4.6641139687865329e-03  3.9862194690071968e-03  1.4930916636216955e-02  2.8132070180936917e-02  4.1517448503480769e-02  5.4485975522802564e-02  6.4931611450398552e-02  7.0545040633420972e-02  6.7850589526978422e-02  5.8697896473369857e-02  4.4572888794577895e-02  2.8652655709692731e-02  1.6238502611023078e-02  7.7831861266810815e-03  6.8326300174760268e-03  1.0678203155844881e-02  1.7589204106514846e-02  2.6748703093389028e-02  3.7059805618430350e-02  4.7461535757084609e-02  5.8149576836350483e-02  6.8610312337355164e-02  7.8387969297630714e-02  8.6264023501481546e-02  9.0981379880149371e-02  9.1457263680726777e-02  8.6056073417235493e-02  7.6839496601249016e-02  6.4871459539779602e-02  5.3645673370990139e-02  4.5500194415497498e-02  4.2726127775479579e-02  4.5164894452016283e-02  4.9788671711369741e-02  5.4147939693196638e-02  5.6258364583576817e-02  5.5872789448858561e-02  5.5696353984268303e-02  5.8474805795058413e-02  6.5929536207478726e-02  7.7486498608644497e-02  9.3062446414058433e-02  1.0794838174158906e-01  1.2200133456702371e-01  1.3168395650260128e-01  1.3526641110901932e-01  1.3375304177003311e-01  1.2430394474745202e-01  1.0698572238568363e-01  8.0468133234684366e-02  4.6536989797940215e-02  9.7759328340444283e-03  -2.6380138852244849e-02  -5.4676442974883326e-02  -7.0228428111813873e-02  -5.7612561842105538e-02  -3.5927621509782508e-02  -1.6946223093669451e-02  -1.1884157771197429e-03  5.9499034546691438e-03  4.6947285328710958e-03  -4.5277525166936379e-03  -1.8780657870498273e-02  -3.6603989162221628e-02  -5.6624659548804065e-02  -7.5534013133485636e-02  -9.2875863808563275e-02  -1.0716028793130017e-01  -1.1830756128557579e-01  -1.2182414078431963e-01  -1.2192521251462268e-01  -1.1363525406265527e-01  -1.0237032100164963e-01  -8.2010370303540595e-02  -5.6565780040764221e-02  -2.6917789933544638e-02  1.0030215393268276e-02  4.9147762959744143e-02  9.1478382403904115e-02  1.3542216533508228e-01  1.7907469115669586e-01  2.2110583282914056e-01  2.6070284769946783e-01  2.9597459433150969e-01  3.2615232538001415e-01  3.5228839443846327e-01  3.7305315128858274e-01  3.8929157763155575e-01  4.0220449334305408e-01  4.1154562352706714e-01  4.1844171488817433e-01  4.2322748905853924e-01  4.2638852730718080e-01  4.2830665717174676e-01  4.2938126349468575e-01  4.2991199508904016e-01  4.3090687768995101e-01  4.3449975531439239e-01  4.4186840887272044e-01  4.5387807884012216e-01  4.7134887733449543e-01  4.9438355321207872e-01  5.2283363038447228e-01  5.5613041487623116e-01  5.9337006601210751e-01  6.3240975974244429e-01  6.7170118790142364e-01  7.0833615031977271e-01  7.3942640340283416e-01  7.6363998844166814e-01  7.7789016438923142e-01  7.8158025177952895e-01  7.7390080533608319e-01  7.5601161713168052e-01  7.2914091782544499e-01  6.9666749374196224e-01  6.5995804855771967e-01  6.2208500733073568e-01  5.8535201512744317e-01  5.5199126217500427e-01  5.2299727016937703e-01  4.9944887910883706e-01  4.8155257763209347e-01  4.6907158059311227e-01  4.6175872012789027e-01  4.5787045817959715e-01  4.5701027627845725e-01  1.4532001954607865e-01  1.5940753313702041e-01  1.7320298100207140e-01  1.7525183220319143e-01  1.6815791518020784e-01  1.7283424622357885e-01  1.2773416255689501e-01  8.9623121501253525e-02  7.0100366220962496e-02  4.6604194367431628e-02  1.1402415978048084e-02  -2.8585053844026456e-02  -6.4621922418967387e-02  -8.4003984202287121e-02  -8.4290182388609802e-02  -7.3206844469039981e-02  5.9918802981808933e-02  -7.8781394614280340e-03  -5.3533887194083443e-03  1.1721400163752105e-03  1.3267728384513252e-02  -4.6537645306586120e-02  1.0048360521491079e-01  2.2515399685625014e-02  -1.0503796211933874e-02  1.1815677759064343e-01  6.6745531682219278e-02  7.8190504174671993e-02  3.7633522384539812e-02  1.1577329804457205e-01  5.6149476763534795e-02  1.0202295682870367e-01  3.4816692843979806e-02  7.4633559002425187e-02  2.7871987874351630e-02  -7.9517032415994480e-03  -2.3087713145186605e-02  6.6128804065759342e-02  6.6480667788691411e-02  -1.7903461654571011e-02  7.1954879604225183e-02  2.6628135330006717e-02  9.0132888314255144e-02  3.0123394937232553e-02  1.3865716591514371e-01  -4.8818760098495319e-02  5.1120686730230382e-02  -9.9908868062662855e-03  2.6524468610775190e-02  -2.4000918792981248e-03  6.2342963416370835e-02  3.6000449546343384e-02  7.4719962326343176e-02  6.7246047539674001e-03  1.9763340987022766e-02  2.3469681785994189e-02  3.1514241328681969e-02  2.2992529963624525e-02  1.3405582143094695e-02  9.6179515220021092e-02  7.5611918382932561e-02  1.1876219202814297e-02  -2.5789661380791681e-03  5.5971796318173360e-02  1.3251343891817322e-01  -1.7223971691555602e-02  6.5648898090456181e-02  1.0044741346721958e-01  4.0486880633050400e-02  7.7710455981931575e-02  1.0620090221956477e-01  8.1229444968371020e-02  4.3025200999190959e-02  5.6234736832558363e-02  5.6235826469392257e-02  1.1187348020490366e-01  2.2482733210910960e-02  -2.7188684594085636e-02  1.3715021394167862e-01  -2.3404734864888185e-02  6.4639993096349657e-02  8.4370859240968349e-02  -1.5343684943530741e-02  -1.7068059417030740e-02  -4.3497051227326229e-02  7.4354112223990354e-02  -3.4347432837605094e-02  8.4382654397157655e-02  4.7974246955078091e-02  1.1724700618314222e-01  7.7768832702923788e-03  -1.2246892404420690e-02  1.6315028757704315e-02  4.0416595171372117e-02  1.0071186875790274e-01  4.7434934218402683e-02  4.6478217213706728e-02  2.3477152855725211e-03  4.0732647488598402e-02  1.0108456638843813e-01  6.0326030831658488e-02  -2.1975270407186446e-02  -3.7462350813271893e-02  -3.8749850824155766e-03  5.5603831347080447e-02  1.2155237434056114e-01  4.4186723112309527e-03  5.9227042451612574e-02  8.3074787934311264e-03  -2.1512739400110677e-02  4.9192750212992548e-02  7.2584876258082145e-02  -3.4401474122155329e-02  5.4130885637873834e-02  4.6412509997094979e-03  6.1477157160608448e-02  5.3917295062117142e-02  1.2767914930130978e-03  7.2629310483501453e-03  7.6142440843910461e-02  2.9934975856912752e-02  1.3762131608757206e-02  -8.8051333047914314e-03  -4.2971135878785933e-02  6.7306984047176638e-02  5.0839372950999467e-02  1.4790711626692750e-02  9.4715681650462208e-02  4.7983996833070877e-02  1.4204664549678164e-01  -3.1744566276153970e-02  6.1286646408076198e-02  2.2620698892300884e-02  -2.2379663077815863e-03  2.5815283140144987e-02  -2.7219048691700172e-02  3.6491697750450511e-02  4.2286938363072769e-02  6.1958913583781410e-02  4.1390423318666596e-02  -3.2077914891345239e-03  5.6631618485065142e-02  9.5734634337749744e-02  3.7194165030688807e-02  2.9660066742897437e-02  9.1398773194578578e-02  -1.9309857132196729e-02  1.4200877976640601e-02  2.7899438272081432e-03  6.5065863143142541e-02  9.3614023396243085e-02  -1.8310448055644951e-03  -8.0703549425311008e-02  5.1306598555529687e-02  1.4823086953183665e-01  5.5082143777854781e-02  5.0326121376134854e-02  1.6140693607137893e-01  -1.6720469230764343e-02  -2.2964826989930541e-02  8.2925694334338940e-02  -2.3664837828160118e-02  1.1045133998423366e-01  2.5620225917018960e-03  -2.1236977907562661e-02  -1.3492924226734796e-02  2.1227614744577832e-02  5.5748448119727456e-02  1.1056463741853388e-01  3.5811050115416417e-02  7.8542847524004034e-02  7.7043403956398415e-02  1.0070414994021691e-02  1.0363414838514655e-01  9.2987279597196867e-02  2.6916998037544541e-02  1.1614516467596293e-01  4.4913254295530981e-02  8.4489362899677831e-02  4.4161512852362930e-02  5.6729395002754091e-02  3.7880404512749447e-02  9.5726176238075958e-02  9.8658084519173371e-03  5.2559900853852051e-02  1.0911570850233136e-02  2.8958838024056046e-02  7.4385207413214624e-02  7.2593039499220038e-02  2.7044469437970741e-02  2.5243286326513913e-02  4.4115943433525127e-03  1.3045505182943128e-02  1.0099195056791724e-02  -4.2741136242638492e-02  3.3605107643088244e-02  -4.9183783207577859e-02  3.1724496521048855e-02  1.5946329184833941e-01  -1.2633634405043214e-02  3.6312185734484012e-02  2.4331672207844410e-02  -1.4188057671111221e-02  9.7326705770072880e-02  2.9166899755528379e-02  6.7725514593145950e-02  2.3928586257060024e-02  -2.3821569211540602e-02  -4.6541851186953842e-03  7.9231004825962098e-02  6.0012656363297043e-02  -1.5238669403419966e-02  1.0516083329753438e-01  1.1850969643463787e-01  -2.3784015679415935e-03  6.8597766525911749e-02  1.0981921347117303e-01  2.5861933499444774e-02  -1.2591492351799776e-02  -5.0944588436800274e-03  1.3506233770332615e-01  3.5993321815857245e-02  7.7499186463260233e-02  8.2120254906701926e-02  -1.0403794815102854e-01  3.6829571299620618e-02  -3.0084331908013542e-02  1.6229186545681947e-02  7.3090955886657635e-02  5.7065407276069305e-02  1.1866556867916525e-01  -3.2168767212770724e-03  4.1716199028219852e-02  -1.3657572758455236e-02  3.6580482379576548e-02  6.3626287870085896e-02  -1.9716133463221840e-02  9.9909035549294242e-02  8.5373488087594124e-02  4.9536323109883401e-02  1.2917794441039545e-02  1.0386604395630895e-01  8.8378630045986922e-02  1.7640918396019035e-02  3.7529374139809051e-02  1.6493725600814892e-02  3.2642594701693756e-02  2.6648066970758999e-02  1.4541703399555940e-02  1.2124742653432354e-01  8.6081563183149509e-02  4.1051459411414040e-02  3.1398178845049592e-02  7.5997086381144732e-02  -3.1236771562567255e-03  7.0710006920339574e-02  6.8195543856795604e-02  7.5570370884168792e-02  -1.5962904119295497e-02  8.7811715079798375e-02  3.6028492862565063e-02  -7.8746518138237565e-03  -4.1438808031285981e-02  7.0717076398260872e-02  1.0494361437210394e-01  5.1689917463048345e-02  1.3234631936596226e-02  4.3774911163545593e-02  -4.0684748517523940e-02  6.8705620781513321e-02  7.2128382005980762e-02  1.3092525967660329e-01  5.6055690930882911e-02  -2.3682416781747730e-02  -3.2967701963185062e-03  5.6732102246686407e-02  9.1535456855055555e-02  1.1523755014916176e-02  4.5132986381612381e-02  1.1154131463599237e-01  -1.1143279803373485e-02  9.0190598296282704e-02  -1.4447198356586569e-02  2.6759202771260312e-02  5.3638444439902136e-02  -6.2475219667229341e-03  5.7226363921893633e-02  3.9969246327881243e-02  4.1248858052325428e-02  -2.2248430060446706e-03  8.7832766841340781e-02  1.2063393322372894e-01  7.5334463894864298e-02  8.9079510203149012e-02  1.4659086630212851e-02  5.7307067357055611e-02  9.5453659088150442e-02  -5.4199053359670686e-02  -2.9521549430724294e-03  5.1597544097662269e-02  1.0088545589290468e-01  3.8491368427398129e-02  4.4742320847360476e-02  3.5482867191253327e-02  1.7824969448210518e-01  -5.7483473819223238e-02  -1.5853601777031767e-02  6.9216419202242155e-02  -2.3232982918913778e-02  5.7215001593266770e-02  4.5421616715152803e-02  8.1080858436904088e-02  -1.2227967791029050e-03  1.0637940103971581e-01  1.7265106042672205e-02  1.1252706255960856e-02  1.3482509247737777e-02  5.7205367096113575e-02  2.0869014526073256e-02  7.2570970099909107e-02  3.2121316156340417e-02  1.9174492111650064e-03  1.4626834337174519e-01  3.2519651752774867e-02  1.3719666368431777e-01  -2.6469402375049030e-02  3.6890962132250626e-02  -2.0017469175308049e-02  -1.8126088855471741e-02  9.4485224057515166e-02  1.9272695819158456e-02  5.4508028742533125e-02  4.6208393226658928e-02  3.4084365649004272e-02  -1.8520233028213387e-02  2.0273764410779382e-02  9.1783090098658399e-02  7.5312580557860359e-02  1.0640170527752471e-01  2.0427719892709296e-02  1.4987067159123488e-01  -1.9065135449280575e-02  7.4164687887725733e-02  4.7896032148756866e-02  5.8126831538453744e-02  1.0193785012863353e-01  1.4491932686084223e-02  -5.5225309846598881e-02  6.8474354994505326e-02  6.6367792703024855e-02  -2.9510119962233186e-03  6.3083511709650722e-02  -3.4973476404289485e-06  -9.1686808216816882e-03  -3.3145746528607162e-02  2.3409534607029417e-03  1.0790862956286061e-01  3.1526393033574664e-03  9.6391248942825053e-02  7.6056461011678803e-02  -5.2560339673398765e-02  1.2931506943716526e-02  1.5076133346977045e-02  4.3133477913942418e-02  7.7793326209764951e-02  -5.4998695682764963e-02  1.3492360245812378e-02  9.9026735066080868e-02  7.0857797194911601e-02  -1.8278399428042210e-02  5.6765247290667516e-02  4.2743607829612486e-02  1.1102909418735489e-01  9.3496861709176010e-02  8.5143365107861635e-02  -5.1253103075366631e-02  1.1845614300374974e-01  2.5188837683173447e-02  9.2888421052034750e-02  6.0947401574180902e-02  2.8306659424971181e-02  5.1005022860209005e-02  4.7876339771166447e-02  5.4374578704156074e-02  1.6764507077904792e-02  -1.0607604971770263e-02  7.0926337116306706e-02  -1.0185827473336330e-02  2.7299377769180937e-02  4.5234434474833406e-02  3.9982272820893970e-02  2.9475544102587986e-02  2.5001599086927267e-02  -1.4871000054415490e-02  1.1401753867580473e-01  1.5823288346408504e-02  4.7777758848311543e-02  3.3704278391704180e-02  3.9971965380309771e-03  2.5129909622322869e-02  -8.6575278642961120e-03  1.0840029035894727e-01  4.3210464493779917e-03  2.0626802781642407e-02  -1.6122476745483852e-02  6.4142771061436343e-02  7.6035008027230996e-02  5.4315596340461965e-02  -4.5459737700464534e-02  -3.2813967153934719e-02  1.4276110953595861e-01  4.5328385205608168e-02  -8.8288224281504084e-04  6.7808739851050931e-02  -8.8894127691812701e-03  8.5744110174149110e-02  -3.2025616541020534e-03  3.1247761550812418e-03  3.2664564477869085e-02  3.0192616535858236e-03  5.2509952892255962e-03  2.9758831557027354e-02  3.4625387331584122e-02  -1.3942446873549841e-02  6.0609838537411857e-02  9.2502756368657083e-02  7.1918085716625682e-02  9.1378813792815192e-02  3.5144074358389378e-02  3.2068882279000566e-02  6.8689644597767344e-02  3.8463853985653725e-02  8.5561216398514772e-02  1.4560756426033524e-02  4.9246180022915753e-02  -2.1112429557012650e-02  1.3735389027668238e-01  -2.5562000114603023e-02  1.1691703439356907e-01  1.9050669676057817e-02  6.6186280618347665e-02  5