<?xml version="1.0"?>
<VTKFile type="UnstructuredGrid"  version="0.1"  >
<UnstructuredGrid>
<Piece  NumberOfPoints="4820" NumberOfCells="9262">
<Points>
<DataArray  type="Float64"  NumberOfComponents="3"  format="ascii">0.004357787137382907 0.04980973490458728 0  3.061616997868383e-18 0.05 0  -0.004357787137382901 0.04980973490458728 0  -0.004357787137382912 -0.04980973490458728 0  -9.184850993605149e-18 -0.05 0  0.004357787137382894 -0.04980973490458728 0  -0.2 -0.2 0  0.55 -0.2 0  2 -0.2 0  2 0.21 0  0.55 0.21 0  -0.2 0.21 0  0.002180969358710071 0.04995241107951016 0  -0.002180969376377175 0.04995241107873878 0  -0.00218096936205605 -0.04995241107936408 0  0.002180969376762267 -0.04995241107872198 0  -0.00681459716460041 0.04953343583362881 0  -0.009254746165878699 0.04913603233275104 0  -0.01167226821331763 0.04861849601495686 0  -0.01406125270101674 0.04798209220613614 0  -0.01641585879600313 0.04722837685110179 0  -0.01873032971283131 0.04635919271135586 0  -0.02099900679895535 0.04537666485604058 0  -0.02321634335656028 0.04428319547131056 0  -0.02537691821523419 0.04308145798249308 0  -0.02747544897576464 0.04177439052314415 0  -0.0295068049360126 0.04036518874560236 0  -0.03146601963036187 0.03885729800979068 0  -0.03334830296690066 0.03725440496408185 0  -0.03514905295182857 0.03556042852089316 0  -0.03686386691867947 0.03377951029547187 0  -0.03848855232085789 0.03191600445301051 0  -0.04001913696023074 0.02997446708380811 0  -0.04145187870654155 0.02795964505672717 0  -0.04278327464009846 0.02587646442367869 0  -0.04401006963121561 0.02373001835346012 0  -0.04512926428658137 0.02152555469556806 0  -0.04613812228218922 0.0192684631528764 0  -0.04703417705848439 0.01696426209509693 0  -0.04781523785065199 0.0146185850644164 0  -0.04847939503850856 0.01223716702101564 0  -0.04902502482533359 0.009825830289366174 0  -0.04945079319725205 0.00739047036139188 0  -0.04975565919278197 0.004937041451287537 0  -0.04993887744399172 0.002471541954727039 0  -0.05000000000000002 -2.179027782864273e-10 0  -0.04993887742290181 -0.002471542380860383 0  -0.04975565915220143 -0.004937041860259632 0  -0.04945079313853181 -0.007390470754298181 0  -0.04902502474990915 -0.009825830665689136 0  -0.04847939494791073 -0.01223716737993267 0  -0.04781523774597484 -0.01461858540679994 0  -0.04703417694176702 -0.01696426241870103 0  -0.04613812215449838 -0.01926846345863071 0  -0.04512926414810409 -0.02152555498589172 0  -0.04401006948618459 -0.02373001862243695 0  -0.04278327448542859 -0.02587646467940464 0  -0.04145187854660255 -0.0279596452938465 0  -0.04001913680095092 -0.02997446729646378 0  -0.03848855215910903 -0.03191600464806871 0  -0.03686386675419343 -0.0337795104749769 0  -0.03514905278746659 -0.03556042868335375 0  -0.0333483028093871 -0.0372544051050802 0  -0.03146601947545011 -0.03885729813523576 0  -0.02950680478964417 -0.04036518885259716 0  -0.02747544883924331 -0.04177439061293563 0  -0.0253769180845661 -0.04308145805946247 0  -0.02321634324304243 -0.04428319553082456 0  -0.02099900669895044 -0.04537666490231995 0  -0.01873032963061061 -0.04635919274457518 0  -0.01641585872377311 -0.04722837687620784 0  -0.01406125264610136 -0.04798209222222922 0  -0.01167226817214395 -0.04861849602484179 0  -0.009254746140787012 -0.04913603233747704 0  -0.006814597153124481 -0.04953343583520761 0  0.006814597163087254 -0.04953343583383697 0  0.009254746162416328 -0.04913603233340317 0  0.01167226820749043 -0.04861849601635584 0  0.01406125269526824 -0.04798209220782076 0  0.01641585878869484 -0.04722837685364205 0  0.01873032970478165 -0.04635919271460813 0  0.02099900678940205 -0.04537666486046157 0  0.02321634334324823 -0.04428319547828967 0  0.02537691819928517 -0.04308145799188777 0  0.02747544895679411 -0.04177439053562125 0  0.02950680491571239 -0.04036518876044175 0  0.03146601960788315 -0.03885729802799359 0  0.03334830294823126 -0.03725440498079377 0  0.03514905293079007 -0.03556042854168828 0  0.03686386690162479 -0.03377951031408381 0  0.03848855230703181 -0.03191600446968382 0  0.04001913694627814 -0.02997446710243633 0  0.04145187869083342 -0.02795964508001545 0  0.04278327462632659 -0.02587646444644864 0  0.04401006962056583 -0.02373001837321138 0  0.04512926427712953 -0.02152555471538427 0  0.04613812227399118 -0.01926846317250652 0  0.04703417705106056 -0.01696426211567986 0  0.04781523784312168 -0.01461858508904696 0  0.04847939503319636 -0.01223716704206073 0  0.04902502482144694 -0.009825830308758294 0  0.04945079319422288 -0.007390470381660498 0  0.0497556591909245 -0.004937041470007301 0  0.04993887744294273 -0.002471541975922472 0  0.05000000000000002 1.960026680888904e-10 0  0.04993887742406512 0.002471542357355427 0  0.0497556591543939 0.004937041838163785 0  0.04945079314184119 0.007390470732154637 0  0.04902502475403982 0.009825830645079567 0  0.04847939495309415 0.01223716735939779 0  0.04781523775084436 0.01461858539087247 0  0.04703417694693356 0.01696426240437658 0  0.04613812215952091 0.01926846344660432 0  0.04512926415455419 0.02152555497236883 0  0.04401006949386337 0.02373001860819578 0  0.04278327450092428 0.0258764646537846 0  0.04145187856220046 0.02795964527072164 0  0.04001913681616228 0.02997446727615497 0  0.03848855217730672 0.03191600462612355 0  0.03686386677147228 0.03377951045612033 0  0.03514905280168957 0.03556042866929533 0  0.0333483028196165 0.03725440509592335 0  0.03146601948352148 0.03885729812869969 0  0.02950680480117144 0.04036518884417076 0  0.02747544884918156 0.04177439060639914 0  0.02537691809390653 0.04308145805396053 0  0.02321634324922249 0.04428319552758454 0  0.02099900670813883 0.04537666489806784 0  0.01873032963827596 0.04635919274147818 0  0.01641585873206496 0.04722837687332573 0  0.01406125264532184 0.04798209222245766 0  0.01167226817007835 0.04861849602533769 0  0.009254746139683721 0.04913603233768484 0  0.006814597151967234 0.04953343583536681 0  -0.1875196675247935 -0.2 0  -0.1748316574073939 -0.2 0  -0.1619325191073485 -0.2 0  -0.1488187266915765 -0.2 0  -0.1354867190390691 -0.2 0  -0.1219328601465505 -0.2 0  -0.1081534589822707 -0.2 0  -0.09414476550972861 -0.2 0  -0.07990295838040007 -0.2 0  -0.06542416251428446 -0.2 0  -0.05070442829752772 -0.2 0  -0.03573975778997357 -0.2 0  -0.02052606446908414 -0.2 0  -0.005059208186730002 -0.2 0  0.0106650220181323 -0.2 0  0.02665090828184707 -0.2 0  0.04290281009001662 -0.2 0  0.05942514756265038 -0.2 0  0.07622242703544463 -0.2 0  0.09329921759985482 -0.2 0  0.110660176225582 -0.2 0  0.1283100240439488 -0.2 0  0.146253576648871 -0.2 0  0.1644957213272042 -0.2 0  0.1830414174264912 -0.2 0  0.2018957247245375 -0.2 0  0.2210637776854531 -0.2 0  0.2405507899571802 -0.2 0  0.2603620802338072 -0.2 0  0.2805030369240936 -0.2 0  0.3009791461642926 -0.2 0  0.3217959913512258 -0.2 0  0.3429592352388189 -0.2 0  0.3644746444814039 -0.2 0  0.3863480802046066 -0.2 0  0.4085854997083186 -0.2 0  0.4311929582382759 -0.2 0  0.4541766169094176 -0.2 0  0.4775427325114808 -0.2 0  0.5012976686781503 -0.2 0  0.5254479007761028 -0.2 0  0.5750000000714078 -0.2 0  0.6000000001173931 -0.2 0  0.6250000002059986 -0.2 0  0.6500000002385247 -0.2 0  0.675000000336103 -0.2 0  0.7000000003686291 -0.2 0  0.7250000004542437 -0.2 0  0.7500000005062106 -0.2 0  0.7750000005716368 -0.2 0  0.8000000006490264 -0.2 0  0.8250000006890297 -0.2 0  0.8500000007910944 -0.2 0  0.8750000008565204 -0.2 0  0.9000000009518555 -0.2 0  0.9250000010408349 -0.2 0  0.9500000011343006 -0.2 0  0.9750000012251494 -0.2 0  1.000000001296183 -0.2 0  1.0250000013646 -0.2 0  1.050000001466665 -0.2 0  1.075000001557888 -0.2 0  1.100000001673038 -0.2 0  1.125000001762017 -0.2 0  1.150000001851744 -0.2 0  1.175000001947827 -0.2 0  1.200000002046153 -0.2 0  1.225000002155695 -0.2 0  1.25000000221813 -0.2 0  1.275000002244301 -0.2 0  1.300000002154947 -0.2 0  1.325000002108962 -0.2 0  1.350000002019609 -0.2 0  1.375000001973624 -0.2 0  1.400000001884271 -0.2 0  1.42500000182707 -0.2 0  1.450000001748932 -0.2 0  1.475000001659579 -0.2 0  1.500000001570226 -0.2 0  1.525000001480872 -0.2 0  1.550000001391519 -0.2 0  1.575000001345534 -0.2 0  1.60000000125618 -0.2 0  1.625000001210195 -0.2 0  1.650000001120842 -0.2 0  1.675000001066632 -0.2 0  1.700000000985504 -0.2 0  1.725000000905871 -0.2 0  1.750000000850165 -0.2 0  1.775000000760812 -0.2 0  1.800000000714827 -0.2 0  1.825000000625473 -0.2 0  1.85000000053612 -0.2 0  1.875000000446767 -0.2 0  1.900000000357413 -0.2 0  1.92500000026806 -0.2 0  1.950000000178707 -0.2 0  1.975000000089353 -0.2 0  2 -0.1758823529236379 0  2 -0.1517647057870068 0  2 -0.1276470586430415 0  2 -0.103529411528254 0  2 -0.07941176439513059 0  2 -0.05529411724717925 0  2 -0.03117647008918309 0  2 -0.007058822960843009 0  2 0.01705882406928105 0  2 0.0411764710640091 0  2 0.06529411804247409 0  2 0.08941176503720205 0  2 0.11352941203193 0  2 0.137647059026658 0  2 0.1617647060111818 0  2 0.185882353005272 0  1.974999999927471 0.21 0  1.949999999833257 0.21 0  1.924999999782412 0.21 0  1.899999999688198 0.21 0  1.874999999637353 0.21 0  1.849999999543139 0.21 0  1.824999999448926 0.21 0  1.799999999354712 0.21 0  1.774999999260499 0.21 0  1.749999999166286 0.21 0  1.724999999082914 0.21 0  1.699999998977859 0.21 0  1.674999998902712 0.21 0  1.649999998789432 0.21 0  1.624999998688863 0.21 0  1.599999998581938 0.21 0  1.574999998495201 0.21 0  1.549999998413699 0.21 0  1.524999998318364 0.21 0  1.499999998273501 0.21 0  1.474999998238357 0.21 0  1.449999998189755 0.21 0  1.424999998038714 0.21 0  1.399999997975905 0.21 0  1.37499999792992 0.21 0  1.349999997902628 0.21 0  1.324999997821126 0.21 0  1.299999997699994 0.21 0  1.274999997636438 0.21 0  1.249999997681301 0.21 0  1.224999997765794 0.21 0  1.199999997857764 0.21 0  1.174999997916835 0.21 0  1.149999998014039 0.21 0  1.124999998067875 0.21 0  1.09999999816508 0.21 0  1.074999998218916 0.21 0  1.049999998316121 0.21 0  1.02499999838865 0.21 0  0.999999998467161 0.21 0  0.9749999985209969 0.21 0 
[...]
<PointData  Scalars="pressure"> 
<DataArray  type="Float64"  Name="pressure"  format="ascii">-7.9488455446696704e-01  -7.9267701822577297e-01  -8.5443423118267270e-01  -9.5244577663575059e-01  -9.0520982454266363e-01  -7.6633883818709014e-01  4.4832290671434827e-01  1.0094274353129677e-01  0.0000000000000000e+00  0.0000000000000000e+00  -1.6381612085376279e-02  4.4398493520029214e-01  -7.8892574238206248e-01  -8.0544984875709957e-01  -9.5279755386452492e-01  -8.4044105305958827e-01  -8.6380014361852964e-01  -8.7450614962376139e-01  -8.7479522678476740e-01  -8.6384399382348598e-01  -8.3955704589115399e-01  -7.9880714333793701e-01  -7.4405179964385959e-01  -6.7555925011769091e-01  -5.8912630668359833e-01  -4.8555086788351021e-01  -3.6779482033671224e-01  -2.4016800237766314e-01  -1.0046948816595812e-01  5.4820801105440929e-02  2.1312208464691759e-01  3.8162166152690014e-01  5.5102557714546763e-01  7.1861571888203168e-01  8.9099336663208062e-01  1.0513356424543456e+00  1.2112619863463467e+00  1.3593653598443824e+00  1.4932093266625479e+00  1.6162913737143982e+00  1.7206100285979382e+00  1.8069368245394486e+00  1.8748589325121607e+00  1.9235898015771917e+00  1.9468270826016061e+00  1.9502309944538134e+00  1.9318403728922589e+00  1.8904823482211579e+00  1.8290012063204912e+00  1.7460555641476110e+00  1.6458058980377384e+00  1.5297465909507577e+00  1.3951283306654572e+00  1.2511607254967083e+00  1.0934234879117906e+00  9.2677560654408619e-01  7.5596017468474996e-01  5.8029735820338235e-01  4.0756391225792632e-01  2.3565577207716348e-01  6.2432779053361538e-02  -9.1226502778475715e-02  -2.5145390986756999e-01  -3.8876937017017710e-01  -5.2025887911315916e-01  -6.3255485371163855e-01  -7.3686825053192084e-01  -8.2000387568347655e-01  -8.9039729744505536e-01  -9.4486551640420802e-01  -9.8017703765192421e-01  -1.0040468381283316e+00  -1.0103616400805884e+00  -1.0083970720808784e+00  -9.8946868870642324e-01  -7.4569941578771259e-01  -7.1110930238267933e-01  -6.7545929318407250e-01  -6.4072311203082777e-01  -6.0789872201685313e-01  -5.7876260646580868e-01  -5.5212998891172393e-01  -5.2907015458490969e-01  -5.0880013389785017e-01  -4.9130339205393342e-01  -4.7654098955288821e-01  -4.6359588815939290e-01  -4.5312832896647171e-01  -4.4446676994592749e-01  -4.3687885540672627e-01  -4.3072740019096584e-01  -4.2528636857165764e-01  -4.2052912109046708e-01  -4.1595475571530022e-01  -4.1157564207483438e-01  -4.0743246379476838e-01  -4.0313592040557666e-01  -3.9880361594035962e-01  -3.9472934799910037e-01  -3.9061158661150858e-01  -3.8692127043672120e-01  -3.8372110657955555e-01  -3.8089763236272706e-01  -3.7897939534047509e-01  -3.7786125600159237e-01  -3.7753291795589727e-01  -3.7804790288422935e-01  -3.7938126687247375e-01  -3.8138010022751706e-01  -3.8405219924751077e-01  -3.8718615234602788e-01  -3.9060717842059989e-01  -3.9424441924814352e-01  -3.9793303833789595e-01  -4.0178323888634154e-01  -4.0557408901108272e-01  -4.0962541865591934e-01  -4.1394480901787961e-01  -4.1854934546132305e-01  -4.2424313549186815e-01  -4.3025470461005449e-01  -4.3844019182837468e-01  -4.4790335104190920e-01  -4.5903996305487060e-01  -4.7282561357037622e-01  -4.8880711774789637e-01  -5.0762376970511303e-01  -5.2939705455957442e-01  -5.5447184138911776e-01  -5.8315096587474680e-01  -6.1519497163940551e-01  -6.5079815621865844e-01  -6.9054462520300264e-01  -7.3223380938215843e-01  4.4769833477650817e-01  4.4686284617981681e-01  4.4495344290839739e-01  4.4212553613580075e-01  4.3755803083279032e-01  4.3088296557920008e-01  4.2121401600658026e-01  4.0810921218381641e-01  3.9030398680010253e-01  3.6757284481420099e-01  3.3914080631191085e-01  3.0393079825720387e-01  2.6432013599435628e-01  2.1851609021017954e-01  1.7016133471441372e-01  1.2040250904943511e-01  6.9594381535107552e-02  2.3011898345710574e-02  -2.1924690024079187e-02  -6.1719675972306584e-02  -9.5935764628297573e-02  -1.2493155592577647e-01  -1.4813388441703337e-01  -1.6480573266773860e-01  -1.7584373453624086e-01  -1.8096970779644986e-01  -1.8189958480776691e-01  -1.7849107725059071e-01  -1.6886871106800980e-01  -1.5755209478265497e-01  -1.4042497119183181e-01  -1.1941042126432687e-01  -9.1569398883747016e-02  -6.0011181621445780e-02  -2.1471957991232537e-02  1.7290056461271401e-02  5.8052640884404469e-02  9.4052850067415497e-02  1.1915026388393112e-01  1.3084625465440747e-01  1.2562412626204575e-01  6.5845977634837585e-02  3.0081851512707626e-02  5.6597963520694063e-04  -1.1750926660715873e-02  -7.4951453806334379e-03  1.0255677887828128e-02  3.5374767075679762e-02  5.8611859934117064e-02  7.5842965538787596e-02  8.5332750411204417e-02  8.9288022866061814e-02  9.1433488081524683e-02  9.5126531601391298e-02  1.0121205776160346e-01  1.0761925052958542e-01  1.1352755888512139e-01  1.1694239968346357e-01  1.1677701479841436e-01  1.1293938685408465e-01  1.0598237486021639e-01  9.6556247198886822e-02  8.5307596253091034e-02  7.3676414172948138e-02  6.0599915790914151e-02  4.7875271135467648e-02  3.6762899190035780e-02  2.7798331622093445e-02  2.4977087139498540e-02  2.9270399182164893e-02  4.2894008777049922e-02  6.1119480849261346e-02  8.0403673548782445e-02  9.6044028091544179e-02  1.0296672097914146e-01  1.0266875374325950e-01  9.5712722328776548e-02  8.4066695346584938e-02  7.0763930521222526e-02  5.6549249340257450e-02  4.1522794335178928e-02  2.7115327537446197e-02  1.3173402870256670e-02  1.2049340134710461e-03  -6.7631716883083618e-03  -8.3128543931447110e-03  -1.2016044686944459e-03  1.2471061363026323e-02  3.2763329722133964e-02  5.4997112161201567e-02  7.3304449647094469e-02  8.3321749538203094e-02  8.5681553152412229e-02  7.8474414425871358e-02  6.5524420812762552e-02  4.9008832406930811e-02  3.0636079808480921e-02  1.4159484513194634e-02  0.0000000000000000e+00  0.0000000000000000e+00  0.0000000000000000e+00  0.0000000000000000e+00  0.0000000000000000e+00  0.0000000000000000e+00  0.0000000000000000e+00  0.0000000000000000e+00  0.0000000000000000e+00  0.0000000000000000e+00  0.0000000000000000e+00  0.0000000000000000e+00  0.0000000000000000e+00  0.0000000000000000e+00  0.0000000000000000e+00  0.0000000000000000e+00  -7.3162678236626576e-03  -1.7010669614643280e-02  -2.7214615688014702e-02  -3.3733459965587506e-02  -3.5128875535158768e-02  -3.1552648997738256e-02  -2.2658151862047900e-02  -1.0946253486210254e-02  3.5220642346798117e-03  1.9659501902647317e-02  3.5787593218924191e-02  5.1651042948712707e-02  6.6492985578197369e-02  7.6527398432835819e-02  8.0307847109575906e-02  7.4352440840912373e-02  6.2385317080685558e-02  4.5530118401298024e-02  2.8212628279068973e-02  1.6606997248673379e-02  1.2148465850282151e-02  1.3922765365645979e-02  2.0488125512979769e-02  3.0068069707031065e-02  4.1024303937321427e-02  5.2728555388458699e-02  6.4408669495701246e-02  7.6180200837712209e-02  8.6368070847217190e-02  9.5174926241171909e-02  1.0179083344115168e-01  1.0336681372179875e-01  1.0002522137641832e-01  9.1556942706676997e-02  8.0628540428847179e-02  6.7877954441478483e-02  5.8531123799956487e-02  5.4423178785287296e-02  5.5220752393790588e-02  5.8839262012509781e-02  6.1133436333799279e-02  5.9850031430931441e-02  5.4633242820079031e-02  4.9049466971676295e-02  4.7002347698122102e-02  5.2387299234656820e-02  6.6990995021901548e-02  8.7207941663882071e-02  1.1086922408219389e-01  1.3356883109829845e-01  1.4942791693068269e-01  1.5729152355817552e-01  1.5239427748098885e-01  1.3544656576996345e-01  1.0766104226792948e-01  6.9238683720352592e-02  2.6723418764610273e-02  -5.4723667313790608e-02  -7.9092724091112995e-02  -9.1767394627076365e-02  -9.3127993442910242e-02  -8.4741032221486684e-02  -7.4129011774396320e-02  -6.4312750894402568e-02  -5.9034983098722016e-02  -5.7622357664775699e-02  -6.1010286886986440e-02  -6.7197367457509302e-02  -7.5280379486599533e-02  -8.3680413214795801e-02  -9.1237836944271095e-02  -9.7388774830071120e-02  -9.8045996202242025e-02  -9.6391742176690526e-02  -8.7271542557023324e-02  -7.5643836302252854e-02  -5.5536873654661346e-02  -3.0609974270208160e-02  -1.6056407199363494e-03  3.4530373428967809e-02  7.2742577590840962e-02  1.1407569233513308e-01  1.5693143860840736e-01  1.9947541415548500e-01  2.4034486520475751e-01  2.7877685534290403e-01  3.1299519082539912e-01  3.4223463892796624e-01  3.6753937358404665e-01  3.8768313634228568e-01  4.0347805198546127e-01  4.1608286376973891e-01  4.2527298604610875e-01  4.3211828224891757e-01  4.3692709229967391e-01  4.4015112669821560e-01  4.4214550532402885e-01  4.4328247189151510e-01  4.4386773212348762e-01  4.4490017594583098e-01  4.4850173503641227e-01  4.5582745679668235e-01  4.6771861570270579e-01  4.8497415495724416e-01  5.0768620221283256e-01  5.3568180718345271e-01  5.6837781777071661e-01  6.0485578429780418e-01  6.4296318507659733e-01  6.8115493629076473e-01  7.1652198179741267e-01  7.4619420269274195e-01  7.6887311407850045e-01  7.8150021907757294e-01  7.8353542855646463e-01  7.7421212529383732e-01  7.5474490006697315e-01  7.2640335775515297e-01  6.9259334603423539e-01  6.5471470120891273e-01  6.1584627608776610e-01  5.7829970479353054e-01  5.4429581775136382e-01  5.1481823671998583e-01  4.9092418559814027e-01  4.7280603222809980e-01  4.6020567205701290e-01  4.5285441235557994e-01  4.4898079440896116e-01  4.4816804575900859e-01  1.0674667423793527e-01  1.1737167973825018e-01  1.2496468202889333e-01  1.1683880853615577e-01  8.9241638343733817e-02  4.4616842117761769e-02  3.4798727077484298e-02  4.8661179148030906e-02  8.8468617481808412e-02  1.0777848560212365e-01  8.4478451699561891e-02  3.9578563450200457e-02  1.5009255885040916e-03  -1.9315505677773567e-02  -2.5166595926034867e-02  -2.0586590299427075e-02  5.9088716245933690e-02  2.8606255418756957e-03  2.6997687123015614e-02  8.0022322197045817e-02  1.5749220443959280e-02  4.8949043805816925e-02  7.2512970186471265e-02  -2.1910816312207659e-02  -5.2947367980937833e-02  1.2540100709594553e-02  5.3150206502552769e-02  4.4593689302485598e-02  -4.6861351349032077e-02  9.8631728658089585e-02  1.2009084929202897e-02  8.8743391109608744e-02  8.6859358963196201e-02  1.3743112077906872e-01  -1.9804764181139217e-02  -4.8943999516884946e-02  1.2036451978505339e-01  2.8537211283264457e-02  3.7748697477757012e-02  6.5030878772926098e-02  1.3234942602633223e-01  5.9044939145313190e-02  5.7284757087575085e-02  1.1162432315873544e-01  1.4204923188827637e-01  6.2848757149653836e-02  -6.4987979823764724e-03  6.7128102681743837e-02  -1.6149081536069334e-02  -4.6646951799344657e-03  -4.1611102936991204e-02  -2.3677515101876177e-02  -1.0902402615273317e-01  5.7476381644623424e-04  2.8256428281379680e-02  -1.4152604763933329e-02  9.5368959518395954e-02  1.7915139710850590e-02  3.2131271864184616e-02  7.1474965636407845e-02  1.0900359236294040e-01  1.0215596275427613e-03  1.0813718587266230e-01  5.0132976150443508e-02  -2.1877925305005590e-02  -3.6237442100177784e-02  1.0172427005553475e-01  6.4445105418169155e-02  9.7321795566594517e-03  2.9559127258845849e-02  1.1821531927606517e-01  1.0856050708233798e-01  5.9912602864345708e-02  5.2249607869909273e-02  1.6498803455540376e-02  8.5455702712302559e-02  -1.0748005401067596e-02  6.7190498347160177e-02  5.6924655798345311e-02  -9.0453752325475572e-03  8.4305472338584445e-02  3.7618284500081874e-02  -3.7397529097362714e-02  -1.1257862119019510e-02  3.3105964172542801e-02  5.6645067480733315e-02  1.0703922694379976e-01  4.7916345010208992e-02  3.2902571899500202e-02  1.7363848563073234e-01  1.0093640370298573e-01  -6.1864520030347446e-04  -3.5082363886903029e-02  5.5644525977387102e-03  1.0242200333520354e-01  2.3226832623044664e-02  6.1191997839780729e-02  5.8203297452213879e-02  2.0884192986817679e-02  -1.5245526136633394e-02  8.8879648156131197e-02  -2.6736699997163389e-02  6.6824180628306626e-02  2.1580546784603145e-02  2.9653566552688047e-02  4.1279016208426722e-02  -3.2108499200170580e-02  1.3323170845340693e-01  -2.4781235565236492e-02  8.8938228488405519e-02  2.3928314132086632e-02  4.2798976890540255e-02  4.4656323078752329e-02  2.0168774925950067e-02  6.6175146365165458e-02  1.0537999602718726e-01  1.7007778498809727e-02  7.9122690810501523e-02  9.2897826390036423e-02  4.7748270849204098e-02  5.0802466289122529e-02  8.9372000189118658e-02  -2.8574693295226911e-02  -2.0278796173862679e-02  1.1652553306052722e-01  6.1433987232563714e-02  6.1010854493361168e-02  6.2223533371885346e-02  1.0579368102790045e-01  1.1030050552630752e-01  4.9632996115593485e-02  6.3164081325394021e-03  8.3679944355263977e-02  2.3933769485856713e-02  1.5384691380767120e-02  1.0254022371442160e-01  1.4292024673989767e-02  1.3081414112423735e-02  1.5229304252232861e-01  7.8330536759574340e-02  -4.1183542663646044e-02  -3.0410634298391449e-02  9.2571723700454148e-02  1.6726613979941206e-02  2.6354080813523356e-03  4.7276447651277795e-02  1.0456144370234741e-01  2.6700304407059755e-03  -1.7536904333396955e-02  6.9290391746383476e-02  -6.8547001187727044e-03  -2.1314843600995966e-04  7.0329921692178915e-02  5.8731297666437608e-02  7.0894882297947354e-02  4.9756380984822525e-02  2.1305276111157203e-02  2.6920060487774174e-02  7.1644241040737480e-02  -2.5432257215389040e-02  1.9315584254495279e-02  3.3117341536735061e-02  1.0346975754528311e-01  4.1880173732021658e-02  1.0424656725309360e-02  1.0322278362415149e-02  3.2043888261572867e-02  1.9342837529407027e-02  6.6238125365310832e-02  1.1039331281162193e-01  4.2261478171862911e-02  9.0624145742163209e-02  -3.1330559503402799e-02  3.8962216285468636e-02  8.6590903429826116e-02  5.4237779178515199e-03  1.2448047529473215e-01  1.0879636201427492e-01  1.1963771810034167e-01  4.3614278202665363e-02  2.7849833562230749e-02  8.5030579664865477e-02  1.6518555579840472e-01  -3.8701450006037960e-02  6.3322120023750844e-02  -3.6935182939080539e-02  -9.5032126241358927e-02  3.9424965452263386e-02  5.8638625033152453e-02  7.9071983405578777e-02  1.1094478586738223e-01  -2.5335705951033037e-02  -1.2697879551587495e-03  3.5430548410680086e-02  4.2119672350382290e-02  1.2072149394211890e-01  4.9514110640643996e-02  2.4284008817152213e-02  4.2759180002274196e-02  -1.4940442680624166e-02  -7.3859716196154283e-04  8.7189195220388857e-02  5.3265111633811070e-02  7.2780078261131739e-02  1.1922470278652918e-02  -1.3099962525836981e-02  3.1160265720130271e-02  9.1621603948245589e-02  -1.0045223048657662e-02  -5.0315847206775843e-02  -5.0755083375345844e-02  -7.4740142451429591e-03  -5.5744537480345212e-02  1.0337735100266512e-01  -3.7078475827302365e-02  6.5044636714478868e-02  8.5249053447323475e-02  -9.5840957983490734e-03  8.4123211905847456e-02  4.6045689617134712e-02  1.5156376131511137e-01  -1.8201226622961648e-02  6.8870846886890325e-02  -4.7530840037473404e-02  8.1275088448684349e-02  -1.0584819899275757e-02  6.3192628266996167e-03  2.5887229385619351e-03  8.5971022077388382e-02  4.1070360826014264e-02  1.9082431153152262e-02  4.3619606272314885e-04  3.8733265765562346e-02  1.0341731327389302e-01  1.1132579945833612e-01  5.7302419482188942e-02  -4.8643477397295513e-02  -2.8635418705788392e-02  4.6666381168601681e-02  3.4619143574361036e-02  -3.1932723556115802e-02  8.9305177440835354e-02  4.6068454110889528e-02  4.1345153631056591e-02  -8.9852476676849074e-03  -4.1560355652333993e-02  -1.2671364516532238e-03  8.5320057101874042e-02  5.6364011960107034e-02  1.1887900151223635e-01  5.7239171461419033e-02  9.3130007623627262e-02  -4.0487408511688153e-02  1.6048430956112575e-01  -4.8484253117539095e-02  4.7133531642069099e-02  1.0405704092296246e-01  4.7273618198852611e-02  -2.8229987226491778e-02  6.4239497931180792e-02  2.3529332270523222e-02  2.3885060848917644e-02  9.8854934907149517e-03  1.0579042125679909e-01  7.9123825032368020e-02  3.4228488376798698e-02  1.6533313190041862e-02  2.7947628432099476e-02  5.8648750912546024e-02  1.0262956689252072e-01  2.8926731242069560e-02  7.3611842125916954e-02  8.9338152561238962e-02  1.7113994256638138e-02  2.6189222338628058e-02  2.7186010202111092e-02  6.4694399924660556e-02  1.1515459719398115e-01  5.4785858758181261e-02  -1.3651010299616111e-02  -3.2841771010451284e-02  1.2808269884424772e-01  -3.1211035789276899e-02  7.1109206866529454e-02  2.2747222954094707e-02  2.8194187910869688e-02  1.2252480394135348e-01  6.5917499323825512e-02  1.4500201747744072e-02  7.5145226769404341e-02  4.9439194012287357e-02  4.6748836152655671e-03  4.0637658620401459e-02  7.7534127855829790e-02  -5.6248864205590892e-03  1.1586492262646406e-01  1.0472161899128453e-01  5.6896781569401721e-02  -9.8431717797509075e-03  4.2549969465909873e-02  1.1404943581978327e-01  -1.2809809994762170e-02  6.4155645086541424e-02  1.8865415180895521e-02  5.7466374782305728e-02  4.1463802445959229e-02  -1.2651706445186851e-02  -2.6027437910024577e-02  -3.9406036137509343e-02  5.4277173625738570e-02  6.7264755677775373e-02  7.0842954897510427e-02  -4.0997645185591441e-03  1.6430968066969501e-01  9.0815312349362992e-02  -9.6665385299774301e-04  -3.4718772352439510e-02  9.7002818435306767e-02  4.2488780449160008e-03  4.4190942456915773e-02  9.1280918073568001e-02  8.0438933625120584e-02  9.0445091665680294e-02  8.1905528846017761e-02  1.5903169791187857e-01  9.2975008800803741e-02  -1.8414233812628876e-02  4.9815594791184054e-02  2.5502551059992658e-02  1.3001835200097872e-01  3.8073887277608538e-03  1.2205428049815179e-02  2.6276309914266577e-02  1.2817215940408330e-01  6.5620460102310887e-02  1.2411892039653029e-01  1.1149338631663010e-02  1.4939825416261276e-02  6.2426047190033085e-02  7.1833175030111204e-02  1.1804238508472269e-02  -1.5179266261696061e-02  5.0939191403263834e-02  6.6578419300062086e-02  -3.0902265363922744e-02  6.8868381595652367e-02  -6.8678468053823532e-03  2.9819174626473662e-02  4.1043656246932105e-02  1.3500957061171640e-01  -3.7882843964600406e-02  2.0339369555179374e-02  -9.2967555565644927e-03  -9.1571865780330497e-03  6.4440155572488222e-02  9.5356764649914175e-02  7.0991574262852852e-02  7.4882037613079100e-02  -7.3842574657137033e-02  -5.0904885375932914e-02  7.0282170042926168e-02  -3.8609570240061501e-02  2.1634174109966094e-02  2.7764549710885544e-02  3.8496733571764710e-02  8.3105669380895086e-02  9.9493783831463480e-03  9.6571868792155235e-02  1.0255612790787619e-01  -4.2079165366451142e-02  2.8227453149014769e-02  9.1828284821375891e-03  1.0684658885081433e-01  7.8931927833752871e-02  9.9150341575774570e-02  1.1334081484113101e-01  8.4417921008181102e-02  3.6022071797518276e-02  4.1305674401682327e-02  2.8405395920834606e-02  -2.1084314371258440e-02  1.9795213999383608e-03  4.6976655527201323e-02  -1.0461763147662040e-02  6.4637660966821664e-02  -3.0266773918679996e-03  5.0037680797278272e-02  9.2347152532537766e-02  2.1767055561098172e-02  5.1211481894661397e-02  2.6207482739351710e-03  4.1968541906822275e-02  2.9019079377477137e-03  -1.2604090735623246e-02  1.5627392575734278e-01  -1.0584839070505054e-02  7.7794002178554478e-02  9.1103400341523769e-02  6.2977698624821984e-02  1.1251621053447251e-01  4.9554058202626081e-02  9.1701454037646637e-02  -1.3520876397152957e-02  9.9455887812543914e-02  4.7567635268640676e-02  2.8414130331158437e-02  1.1651653981151362e-01  6.2824938499801253e-02  8.1019559820222908e-02  1.3118238090244943e-02  1.0868880439921548e-01  9.6289599878936788e-02  3.3064317170237889e-02  3.9721983525763574e-02  5.9890698859465165e-02  5.3028124751350998e-02  1.9694601861536470e-02  1.8745748194550548e-03  8.6461225495905354e-03  8.0743985290501280e-02  9.7724658939876405e-02  5.4984505854534620e-02  1.3464124349002776e-01  -4.8537310735333190e-02  6.9289285128664765e-02  -4.5474571471741068e-02  9.7409072314476958e-02  9.2388086281674622e-02  9.7782288696054098e-02  -4.8803446916919374e-02  9.0167599896777792e-02  5.5100706347622527e-02  4.4686058377488139e-02  6.8779041259806814e-02  -4.1440534576616889e-03  6.5767393307491442e-02  1.2639268732022316e-01  -4.5606253122005447e-02  5.6687008624329870e-02  2.7663145350365449e-02  1.5446376340963554e-02  1.085