<?xml version="1.0"?>
<VTKFile type="UnstructuredGrid"  version="0.1"  >
<UnstructuredGrid>
<Piece  NumberOfPoints="4820" NumberOfCells="9262">
<Points>
<DataArray  type="Float64"  NumberOfComponents="3"  format="ascii">0.004357787137382907 0.04980973490458728 0  3.061616997868383e-18 0.05 0  -0.004357787137382901 0.04980973490458728 0  -0.004357787137382912 -0.04980973490458728 0  -9.184850993605149e-18 -0.05 0  0.004357787137382894 -0.04980973490458728 0  -0.2 -0.2 0  0.55 -0.2 0  2 -0.2 0  2 0.21 0  0.55 0.21 0  -0.2 0.21 0  0.002180969358710071 0.04995241107951016 0  -0.002180969376377175 0.04995241107873878 0  -0.00218096936205605 -0.04995241107936408 0  0.002180969376762267 -0.04995241107872198 0  -0.00681459716460041 0.04953343583362881 0  -0.009254746165878699 0.04913603233275104 0  -0.01167226821331763 0.04861849601495686 0  -0.01406125270101674 0.04798209220613614 0  -0.01641585879600313 0.04722837685110179 0  -0.01873032971283131 0.04635919271135586 0  -0.02099900679895535 0.04537666485604058 0  -0.02321634335656028 0.04428319547131056 0  -0.02537691821523419 0.04308145798249308 0  -0.02747544897576464 0.04177439052314415 0  -0.0295068049360126 0.04036518874560236 0  -0.03146601963036187 0.03885729800979068 0  -0.03334830296690066 0.03725440496408185 0  -0.03514905295182857 0.03556042852089316 0  -0.03686386691867947 0.03377951029547187 0  -0.03848855232085789 0.03191600445301051 0  -0.04001913696023074 0.02997446708380811 0  -0.04145187870654155 0.02795964505672717 0  -0.04278327464009846 0.02587646442367869 0  -0.04401006963121561 0.02373001835346012 0  -0.04512926428658137 0.02152555469556806 0  -0.04613812228218922 0.0192684631528764 0  -0.04703417705848439 0.01696426209509693 0  -0.04781523785065199 0.0146185850644164 0  -0.04847939503850856 0.01223716702101564 0  -0.04902502482533359 0.009825830289366174 0  -0.04945079319725205 0.00739047036139188 0  -0.04975565919278197 0.004937041451287537 0  -0.04993887744399172 0.002471541954727039 0  -0.05000000000000002 -2.179027782864273e-10 0  -0.04993887742290181 -0.002471542380860383 0  -0.04975565915220143 -0.004937041860259632 0  -0.04945079313853181 -0.007390470754298181 0  -0.04902502474990915 -0.009825830665689136 0  -0.04847939494791073 -0.01223716737993267 0  -0.04781523774597484 -0.01461858540679994 0  -0.04703417694176702 -0.01696426241870103 0  -0.04613812215449838 -0.01926846345863071 0  -0.04512926414810409 -0.02152555498589172 0  -0.04401006948618459 -0.02373001862243695 0  -0.04278327448542859 -0.02587646467940464 0  -0.04145187854660255 -0.0279596452938465 0  -0.04001913680095092 -0.02997446729646378 0  -0.03848855215910903 -0.03191600464806871 0  -0.03686386675419343 -0.0337795104749769 0  -0.03514905278746659 -0.03556042868335375 0  -0.0333483028093871 -0.0372544051050802 0  -0.03146601947545011 -0.03885729813523576 0  -0.02950680478964417 -0.04036518885259716 0  -0.02747544883924331 -0.04177439061293563 0  -0.0253769180845661 -0.04308145805946247 0  -0.02321634324304243 -0.04428319553082456 0  -0.02099900669895044 -0.04537666490231995 0  -0.01873032963061061 -0.04635919274457518 0  -0.01641585872377311 -0.04722837687620784 0  -0.01406125264610136 -0.04798209222222922 0  -0.01167226817214395 -0.04861849602484179 0  -0.009254746140787012 -0.04913603233747704 0  -0.006814597153124481 -0.04953343583520761 0  0.006814597163087254 -0.04953343583383697 0  0.009254746162416328 -0.04913603233340317 0  0.01167226820749043 -0.04861849601635584 0  0.01406125269526824 -0.04798209220782076 0  0.01641585878869484 -0.04722837685364205 0  0.01873032970478165 -0.04635919271460813 0  0.02099900678940205 -0.04537666486046157 0  0.02321634334324823 -0.04428319547828967 0  0.02537691819928517 -0.04308145799188777 0  0.02747544895679411 -0.04177439053562125 0  0.02950680491571239 -0.04036518876044175 0  0.03146601960788315 -0.03885729802799359 0  0.03334830294823126 -0.03725440498079377 0  0.03514905293079007 -0.03556042854168828 0  0.03686386690162479 -0.03377951031408381 0  0.03848855230703181 -0.03191600446968382 0  0.04001913694627814 -0.02997446710243633 0  0.04145187869083342 -0.02795964508001545 0  0.04278327462632659 -0.02587646444644864 0  0.04401006962056583 -0.02373001837321138 0  0.04512926427712953 -0.02152555471538427 0  0.04613812227399118 -0.01926846317250652 0  0.04703417705106056 -0.01696426211567986 0  0.04781523784312168 -0.01461858508904696 0  0.04847939503319636 -0.01223716704206073 0  0.04902502482144694 -0.009825830308758294 0  0.04945079319422288 -0.007390470381660498 0  0.0497556591909245 -0.004937041470007301 0  0.04993887744294273 -0.002471541975922472 0  0.05000000000000002 1.960026680888904e-10 0  0.04993887742406512 0.002471542357355427 0  0.0497556591543939 0.004937041838163785 0  0.04945079314184119 0.007390470732154637 0  0.04902502475403982 0.009825830645079567 0  0.04847939495309415 0.01223716735939779 0  0.04781523775084436 0.01461858539087247 0  0.04703417694693356 0.01696426240437658 0  0.04613812215952091 0.01926846344660432 0  0.04512926415455419 0.02152555497236883 0  0.04401006949386337 0.02373001860819578 0  0.04278327450092428 0.0258764646537846 0  0.04145187856220046 0.02795964527072164 0  0.04001913681616228 0.02997446727615497 0  0.03848855217730672 0.03191600462612355 0  0.03686386677147228 0.03377951045612033 0  0.03514905280168957 0.03556042866929533 0  0.0333483028196165 0.03725440509592335 0  0.03146601948352148 0.03885729812869969 0  0.02950680480117144 0.04036518884417076 0  0.02747544884918156 0.04177439060639914 0  0.02537691809390653 0.04308145805396053 0  0.02321634324922249 0.04428319552758454 0  0.02099900670813883 0.04537666489806784 0  0.01873032963827596 0.04635919274147818 0  0.01641585873206496 0.04722837687332573 0  0.01406125264532184 0.04798209222245766 0  0.01167226817007835 0.04861849602533769 0  0.009254746139683721 0.04913603233768484 0  0.006814597151967234 0.04953343583536681 0  -0.1875196675247935 -0.2 0  -0.1748316574073939 -0.2 0  -0.1619325191073485 -0.2 0  -0.1488187266915765 -0.2 0  -0.1354867190390691 -0.2 0  -0.1219328601465505 -0.2 0  -0.1081534589822707 -0.2 0  -0.09414476550972861 -0.2 0  -0.07990295838040007 -0.2 0  -0.06542416251428446 -0.2 0  -0.05070442829752772 -0.2 0  -0.03573975778997357 -0.2 0  -0.02052606446908414 -0.2 0  -0.005059208186730002 -0.2 0  0.0106650220181323 -0.2 0  0.02665090828184707 -0.2 0  0.04290281009001662 -0.2 0  0.05942514756265038 -0.2 0  0.07622242703544463 -0.2 0  0.09329921759985482 -0.2 0  0.110660176225582 -0.2 0  0.1283100240439488 -0.2 0  0.146253576648871 -0.2 0  0.1644957213272042 -0.2 0  0.1830414174264912 -0.2 0  0.2018957247245375 -0.2 0  0.2210637776854531 -0.2 0  0.2405507899571802 -0.2 0  0.2603620802338072 -0.2 0  0.2805030369240936 -0.2 0  0.3009791461642926 -0.2 0  0.3217959913512258 -0.2 0  0.3429592352388189 -0.2 0  0.3644746444814039 -0.2 0  0.3863480802046066 -0.2 0  0.4085854997083186 -0.2 0  0.4311929582382759 -0.2 0  0.4541766169094176 -0.2 0  0.4775427325114808 -0.2 0  0.5012976686781503 -0.2 0  0.5254479007761028 -0.2 0  0.5750000000714078 -0.2 0  0.6000000001173931 -0.2 0  0.6250000002059986 -0.2 0  0.6500000002385247 -0.2 0  0.675000000336103 -0.2 0  0.7000000003686291 -0.2 0  0.7250000004542437 -0.2 0  0.7500000005062106 -0.2 0  0.7750000005716368 -0.2 0  0.8000000006490264 -0.2 0  0.8250000006890297 -0.2 0  0.8500000007910944 -0.2 0  0.8750000008565204 -0.2 0  0.9000000009518555 -0.2 0  0.9250000010408349 -0.2 0  0.9500000011343006 -0.2 0  0.9750000012251494 -0.2 0  1.000000001296183 -0.2 0  1.0250000013646 -0.2 0  1.050000001466665 -0.2 0  1.075000001557888 -0.2 0  1.100000001673038 -0.2 0  1.125000001762017 -0.2 0  1.150000001851744 -0.2 0  1.175000001947827 -0.2 0  1.200000002046153 -0.2 0  1.225000002155695 -0.2 0  1.25000000221813 -0.2 0  1.275000002244301 -0.2 0  1.300000002154947 -0.2 0  1.325000002108962 -0.2 0  1.350000002019609 -0.2 0  1.375000001973624 -0.2 0  1.400000001884271 -0.2 0  1.42500000182707 -0.2 0  1.450000001748932 -0.2 0  1.475000001659579 -0.2 0  1.500000001570226 -0.2 0  1.525000001480872 -0.2 0  1.550000001391519 -0.2 0  1.575000001345534 -0.2 0  1.60000000125618 -0.2 0  1.625000001210195 -0.2 0  1.650000001120842 -0.2 0  1.675000001066632 -0.2 0  1.700000000985504 -0.2 0  1.725000000905871 -0.2 0  1.750000000850165 -0.2 0  1.775000000760812 -0.2 0  1.800000000714827 -0.2 0  1.825000000625473 -0.2 0  1.85000000053612 -0.2 0  1.875000000446767 -0.2 0  1.900000000357413 -0.2 0  1.92500000026806 -0.2 0  1.950000000178707 -0.2 0  1.975000000089353 -0.2 0  2 -0.1758823529236379 0  2 -0.1517647057870068 0  2 -0.1276470586430415 0  2 -0.103529411528254 0  2 -0.07941176439513059 0  2 -0.05529411724717925 0  2 -0.03117647008918309 0  2 -0.007058822960843009 0  2 0.01705882406928105 0  2 0.0411764710640091 0  2 0.06529411804247409 0  2 0.08941176503720205 0  2 0.11352941203193 0  2 0.137647059026658 0  2 0.1617647060111818 0  2 0.185882353005272 0  1.974999999927471 0.21 0  1.949999999833257 0.21 0  1.924999999782412 0.21 0  1.899999999688198 0.21 0  1.874999999637353 0.21 0  1.849999999543139 0.21 0  1.824999999448926 0.21 0  1.799999999354712 0.21 0  1.774999999260499 0.21 0  1.749999999166286 0.21 0  1.724999999082914 0.21 0  1.699999998977859 0.21 0  1.674999998902712 0.21 0  1.649999998789432 0.21 0  1.624999998688863 0.21 0  1.599999998581938 0.21 0  1.574999998495201 0.21 0  1.549999998413699 0.21 0  1.524999998318364 0.21 0  1.499999998273501 0.21 0  1.474999998238357 0.21 0  1.449999998189755 0.21 0  1.424999998038714 0.21 0  1.399999997975905 0.21 0  1.37499999792992 0.21 0  1.349999997902628 0.21 0  1.324999997821126 0.21 0  1.299999997699994 0.21 0  1.274999997636438 0.21 0  1.249999997681301 0.21 0  1.224999997765794 0.21 0  1.199999997857764 0.21 0  1.174999997916835 0.21 0  1.149999998014039 0.21 0  1.124999998067875 0.21 0  1.09999999816508 0.21 0  1.074999998218916 0.21 0  1.049999998316121 0.21 0  1.02499999838865 0.21 0  0.999999998467161 0.21 0  0.9749999985209969 0.21 0 
[...]
<PointData  Scalars="pressure"> 
<DataArray  type="Float64"  Name="pressure"  format="ascii">-8.4896989649866883e-01  -7.9142274086678721e-01  -8.8620989790358817e-01  -9.4085732925651466e-01  -9.2937336372362656e-01  -7.3532273816030280e-01  4.4984290125900289e-01  1.1003958736772774e-02  0.0000000000000000e+00  0.0000000000000000e+00  3.9237070441350330e-02  4.1796421942238299e-01  -8.0932931211420500e-01  -8.0644401859844350e-01  -9.7335489740964587e-01  -8.4424475641831254e-01  -9.0217957457547415e-01  -9.1959449254585213e-01  -9.2550673432049224e-01  -9.1896339219811840e-01  -8.9837538116202997e-01  -8.6048435341582807e-01  -8.0801101729080349e-01  -7.4131798306786612e-01  -6.5613924875129581e-01  -5.5335200346054048e-01  -4.3588499714727869e-01  -3.0829204792220893e-01  -1.6823466558236438e-01  -1.1978914929615336e-02  1.4745033462005797e-01  3.1762232571269977e-01  4.8896398967719290e-01  6.5877067695299862e-01  8.3392148414186618e-01  9.9710049153199731e-01  1.1603950585775389e+00  1.3121468293280418e+00  1.4497822778203462e+00  1.5770308449588850e+00  1.6856936441944046e+00  1.7764662029358866e+00  1.8491245937184431e+00  1.9026787297837571e+00  1.9307741031806593e+00  1.9390820070924935e+00  1.9256108094858064e+00  1.8891542572178441e+00  1.8324230990365631e+00  1.7542069794864146e+00  1.6584426479203485e+00  1.5466343673822702e+00  1.4161576841521677e+00  1.2759571520895092e+00  1.1218385895064993e+00  9.5852435880423548e-01  7.9066730882959979e-01  6.1769109134008438e-01  4.4722058123825759e-01  2.7726921666485349e-01  1.0579832199652027e-01  -4.6825172963823443e-02  -2.0586027909396376e-01  -3.4282167403827107e-01  -4.7407608198677709e-01  -5.8665065933929850e-01  -6.9151946293903899e-01  -7.7575814342630445e-01  -8.4766151340904139e-01  -9.0421802926174177e-01  -9.4225767341262401e-01  -9.6952602160237611e-01  -9.8014382115268261e-01  -9.8350101735448114e-01  -9.7127990933265673e-01  -7.1764250866571866e-01  -6.8304709651942497e-01  -6.4796038471267736e-01  -6.1450355872928675e-01  -5.8319598344663415e-01  -5.5575466733831036e-01  -5.3091975573034411e-01  -5.0961614778149467e-01  -4.9103736399745640e-01  -4.7514342252765140e-01  -4.6191789462601213e-01  -4.5045238625752121e-01  -4.4141445125660983e-01  -4.3411022804749333e-01  -4.2790865432877923e-01  -4.2306774765834620e-01  -4.1892622785279060e-01  -4.1541023057046184e-01  -4.1208284163356601e-01  -4.0893669676830285e-01  -4.0598514237988914e-01  -4.0295169768070688e-01  -3.9997384240493505e-01  -3.9723786076981299e-01  -3.9465154574564354e-01  -3.9253642183961202e-01  -3.9105410819801073e-01  -3.9002327180028995e-01  -3.8998483752009511e-01  -3.9078808245843288e-01  -3.9236416001684449e-01  -3.9482546241328281e-01  -3.9797897407688881e-01  -4.0174669655403089e-01  -4.0608783192415737e-01  -4.1076956845085677e-01  -4.1562078617668813e-01  -4.2061828180603905e-01  -4.2555589312168196e-01  -4.3062289043265206e-01  -4.3556698037598979e-01  -4.4076393191596913e-01  -4.4621961549238082e-01  -4.5193394611154530e-01  -4.5881726596664263e-01  -4.6594614916978294e-01  -4.7529683376375070e-01  -4.8597726844980704e-01  -4.9830119935531408e-01  -5.1340043035447425e-01  -5.3073088523400336e-01  -5.5099326925995473e-01  -5.7425932959726622e-01  -6.0084658143116432e-01  -6.3099609774708310e-01  -6.6435666832665685e-01  -7.0095351538321526e-01  -7.4120677927093404e-01  -7.8293426376980357e-01  4.4917641432686795e-01  4.4820383294649141e-01  4.4604242393559890e-01  4.4288064868028243e-01  4.3792240776542762e-01  4.3086243815550973e-01  4.2087896217517440e-01  4.0760332134919097e-01  3.8989358562870452e-01  3.6757122568527922e-01  3.3994640716939761e-01  3.0603208679171773e-01  2.6809968973748277e-01  2.2450516921989006e-01  1.7867757666697753e-01  1.3174867386694503e-01  8.4060085115862868e-02  4.0706873492631822e-02  -6.8578329686310303e-04  -3.6930611133583903e-02  -6.7100898644890383e-02  -9.1913258616407409e-02  -1.1079444049149559e-01  -1.2294704380538073e-01  -1.2957097304120635e-01  -1.3050438486226715e-01  -1.2815713589640287e-01  -1.2333638681644887e-01  -1.1488035715617735e-01  -1.0814719867850174e-01  -1.0157402869968511e-01  -9.7787427937707477e-02  -9.7739942997257204e-02  -1.0146292115249379e-01  -1.0964441943259715e-01  -1.1786325600719304e-01  -1.2391780979848814e-01  -1.2224438611027517e-01  -1.0686700946587352e-01  -7.7176399216559305e-02  -3.7360663151445823e-02  5.8154819075727802e-02  9.7198747775525784e-02  1.2640954754311864e-01  1.4127528987294294e-01  1.4285248592857125e-01  1.3258791739113809e-01  1.1230996750200507e-01  8.9113794332755847e-02  6.6273040294877766e-02  4.9084547751700028e-02  4.1297860038639618e-02  4.1481011311998495e-02  4.6068509261377337e-02  5.1551240343836194e-02  5.2589371700189881e-02  4.8624989744563384e-02  4.2293774801289548e-02  3.8375195749017384e-02  3.9878862814268452e-02  4.8756630810623758e-02  6.2427138513426038e-02  7.8155174613799464e-02  9.0408666462189216e-02  9.8289465179549840e-02  1.0053867625953720e-01  9.7474469392099375e-02  8.9922991334721439e-02  7.9894969648323336e-02  6.7704331874970589e-02  5.4608663695105267e-02  4.0948036733847497e-02  2.7081530657006497e-02  1.3582398589293766e-02  2.6907476967712399e-03  -4.1545272824541424e-03  -2.9623691861784948e-03  7.4341452573615718e-03  2.5013712467013852e-02  4.5402595941762769e-02  6.5035647632592758e-02  7.5561134512444034e-02  7.7545088109819887e-02  7.1620843178634319e-02  5.8288105336478213e-02  4.1798017591905795e-02  2.2934523153818838e-02  4.6016092225529505e-03  -1.2828115902610215e-02  -2.9829918301396040e-02  -4.4191719645017349e-02  -5.3372108422859089e-02  -5.6929579303121522e-02  -5.2030737314078451e-02  -4.1062563035326460e-02  -2.6790665529937651e-02  -1.2464872687471465e-02  -3.3218194763301847e-03  0.0000000000000000e+00  0.0000000000000000e+00  0.0000000000000000e+00  0.0000000000000000e+00  0.0000000000000000e+00  0.0000000000000000e+00  0.0000000000000000e+00  0.0000000000000000e+00  0.0000000000000000e+00  0.0000000000000000e+00  0.0000000000000000e+00  0.0000000000000000e+00  0.0000000000000000e+00  0.0000000000000000e+00  0.0000000000000000e+00  0.0000000000000000e+00  6.3361817969817191e-03  1.5613591863875812e-02  2.7814644766431706e-02  4.0840624411050533e-02  5.3672703248042464e-02  6.4004491644569880e-02  6.8612769441829563e-02  6.6710379906193482e-02  5.6759766593359733e-02  4.0669537460223532e-02  2.2764641802685202e-02  6.7530587093031823e-03  -5.4056911791526127e-03  -1.0215685777896324e-02  -8.6499013487686682e-03  -1.9523875224254554e-03  7.0049517516034719e-03  1.7745028797054276e-02  2.9790476936691658e-02  4.1859586032708555e-02  5.4185913790027067e-02  6.6564623333260159e-02  7.6537226107945361e-02  8.3662265197846711e-02  8.4650226137343673e-02  7.9219528972448924e-02  6.7989986403678981e-02  5.1490209770169555e-02  3.6856758006765390e-02  2.6103256070841699e-02  2.0459634122292184e-02  2.2665543031399553e-02  2.9104960343403707e-02  3.7791767756969609e-02  4.6728921440977150e-02  5.5920241573647028e-02  6.4663936633579847e-02  7.3602649597276679e-02  8.2793300982824364e-02  9.1285937974948633e-02  9.8151902459771317e-02  1.0261654293969377e-01  1.0477975539934448e-01  1.0473435757111450e-01  1.0288342386281320e-01  1.0037597620376440e-01  9.6736577452834260e-02  9.0658082367635798e-02  7.9287236847995005e-02  6.1098309032928524e-02  3.6269473779163570e-02  7.7018920702332846e-03  -1.7808240587821697e-02  -3.4458982081773323e-02  -3.7048297887087009e-02  -2.2468696296860314e-02  3.9923410306428641e-03  7.2404120397719873e-02  9.0389087142319649e-02  9.6443326890090414e-02  8.7810468450914100e-02  6.6172750117420229e-02  3.7084926982534655e-02  3.6859961775518157e-03  -3.0442735598501840e-02  -6.3847465210305432e-02  -9.3820011088964247e-02  -1.1916817316685042e-01  -1.3903884210570594e-01  -1.5424167805379638e-01  -1.6425270738961040e-01  -1.7073011174047342e-01  -1.6933166023619733e-01  -1.6471354584950237e-01  -1.5180078829482954e-01  -1.3622249999866712e-01  -1.1242129184179334e-01  -8.3400999554155308e-02  -5.0812927069183958e-02  -1.1073311685835710e-02  3.0574857064060015e-02  7.5164241468304652e-02  1.2108408914907878e-01  1.6635176960691853e-01  2.0964415723373217e-01  2.5018515900191252e-01  2.8606333409207452e-01  3.1647459036863246e-01  3.4262747550726752e-01  3.6320050204279164e-01  3.7910328914555647e-01  3.9162111342621619e-01  4.0055629590731850e-01  4.0708699268998194e-01  4.1156630800804150e-01  4.1450779742102045e-01  4.1628576105747378e-01  4.1729432153195872e-01  4.1781495249625700e-01  4.1875827304635327e-01  4.2226878262392004e-01  4.2954337921397362e-01  4.4146301998200055e-01  4.5886232757308931e-01  4.8186622986698502e-01  5.1033013481939460e-01  5.4369756001659286e-01  5.8108219848035336e-01  6.2033132865978413e-01  6.5992129290587176e-01  6.9690986041793790e-01  7.2844709340931135e-01  7.5314177050172970e-01  7.6793026640159823e-01  7.7215958191061917e-01  7.6501452584183260e-01  7.4762530386226400e-01  7.2121562916969773e-01  6.8912758652450867e-01  6.5272091504576868e-01  6.1507311932347086e-01  5.7848353817220100e-01  5.4519563597375664e-01  5.1621254882669776e-01  4.9261592463088877e-01  4.7463727412649526e-01  4.6204883374018252e-01  4.5462921380439231e-01  4.5064060396693217e-01  4.4972458993166531e-01  7.2558651128911697e-03  6.0089323330854167e-03  1.2379815130630276e-02  3.0798438297945051e-02  6.1665120483675881e-02  8.7944912169829081e-02  5.8649248063550707e-02  -2.7657475377911071e-02  -8.6254395973637377e-02  -8.1948921289749677e-02  -3.1614015045200505e-02  1.7741003070395594e-02  3.7996407067427976e-02  4.3835101432884216e-02  4.4889867342386904e-02  4.2928726574512487e-02  -1.1104140609853169e-03  -1.5021414614284377e-02  1.1553758437140398e-02  3.7882767583247955e-02  1.5662478444293295e-05  3.9000641608517655e-02  -8.5799381349254036e-02  4.4116047416183413e-02  1.9072512833858430e-02  9.1735435645438623e-02  7.6218496317126674e-03  -4.2115216954899705e-02  7.2792244671080447e-02  2.0488955617653345e-02  5.1615645123254061e-02  -3.6638750535525851e-02  -8.1940750583914909e-02  -1.4505888774706913e-02  1.4905970147812847e-01  4.8452531007929553e-02  9.3932625090915496e-03  1.0069436443407158e-01  1.0350589439126107e-01  3.6920872197670602e-03  4.4610112716275033e-02  1.1997646442421805e-01  1.1491312646496638e-01  3.2198579635823392e-02  6.4631492823366554e-02  -4.1349959161221896e-02  7.4584541533916651e-02  8.0526537274819565e-02  3.5006876069183485e-02  -2.1396231331899839e-02  1.2588752276433339e-03  -1.3495990829225939e-02  -2.9519402031985675e-02  -3.9643320946731462e-03  5.1443214520128728e-03  7.1902943639607544e-02  -2.2235278331058827e-02  -1.1564898624968066e-02  5.1095666582193257e-02  6.0534538344655997e-02  -2.4249893231088032e-02  3.6590074488299533e-02  -6.1853395160674757e-02  -2.9852125421482655e-02  1.3556425844421957e-01  2.4546650074757259e-02  5.0154413727466853e-02  2.4463207285914900e-02  7.3657882718219533e-02  1.1123342905663562e-01  2.5138645954135758e-02  8.0639493812283691e-03  5.4550235544078694e-02  8.4908790548528124e-02  9.3087741800311680e-02  8.2281675845993524e-02  5.1197482957439332e-02  -1.8530224812137227e-02  9.3910571751989885e-02  6.9526923122950213e-03  1.7178302453401836e-02  1.0504136304690426e-02  3.2721075701618300e-02  -1.0945449002080521e-02  8.4076802320533300e-02  5.5463084460879886e-02  5.5180799941722244e-02  8.9489717714404254e-02  7.6667147807103264e-02  5.0819384433746480e-03  -6.9674692743141892e-02  1.4595059496078727e-01  7.6628499373782064e-02  1.6504758224208048e-03  -7.5383200886954008e-02  -1.5982667275929806e-02  -1.1983708757445248e-02  2.4098567520662462e-02  -2.8107192368910523e-02  8.0397836927878621e-02  -2.5469040276142007e-02  2.5860680599417403e-03  9.5213424839790714e-02  -4.5655550292209759e-02  -4.5692996002791170e-03  1.0504628082454465e-02  1.4427083044032745e-02  5.9019929397865947e-02  4.5456623263189493e-02  -3.0511801428465223e-02  5.9672421900703050e-02  -1.4555251663258476e-02  -4.9716873033381855e-02  1.1877264662524456e-01  9.2584033087978926e-02  3.1667637244911333e-04  9.0215271557458662e-02  -9.7857839610929979e-04  2.2204171645185164e-02  9.0776569621510830e-02  9.4676816980940076e-02  5.2279486052489117e-02  7.7369701386361288e-03  -1.5885338927291642e-02  5.3811328549133244e-02  1.0754040127391727e-01  9.7118824864016309e-02  1.0423569002433233e-01  2.6837998566055930e-02  8.5946864255806332e-02  -2.7546808284877870e-02  5.8267306828669256e-02  5.6127202970832589e-02  4.0077380992424319e-02  -1.9046139559467368e-02  3.3343512407735837e-02  4.8933049086882639e-02  7.5224239578608854e-02  -4.2912756678534607e-02  -5.4910169657890459e-02  4.9476780747809493e-02  1.5591999270029294e-01  2.2611688960516890e-02  7.3321020760818964e-02  1.9293472766354961e-02  -9.8935505541476398e-02  -7.7369928000042387e-02  1.8250793970144386e-02  4.1732595728355075e-02  -1.2987194690534231e-02  -6.8655453973301667e-02  -1.1920118543917517e-02  8.3897680187590869e-03  1.3328625658937991e-02  6.9191416804398012e-02  6.9251560688239913e-02  -1.0120084642004815e-02  9.2704590754293673e-02  -2.7858776308573398e-02  6.2147160386815696e-03  1.2682819249816801e-02  -4.5053313367808693e-03  4.9944018575728409e-02  1.7984584992224072e-02  1.4641128375337664e-01  9.5382693542739039e-02  -4.9184849583705163e-02  9.6538847837337349e-02  1.0430418361199036e-01  -1.2280585825370674e-03  6.9566599349469030e-02  3.7879047651601869e-02  3.1617158362707530e-02  1.0219119618919090e-01  -2.7910388846299383e-03  5.5508566141167059e-02  -2.0598199280056368e-03  3.7619180655905075e-02  3.7167032644522424e-02  -5.4250761436665983e-02  8.6819630413554671e-02  4.4234393535705220e-02  6.2289578836178970e-03  7.8806943132743806e-02  9.6989347654353089e-02  2.1436477357764109e-02  4.9915536250607177e-02  1.0220406551263002e-01  -6.1973186704633844e-02  3.9500820034431748e-02  3.7693958587091569e-02  2.0935073014852874e-02  9.3887171560963038e-03  -2.2599120551752203e-02  1.2907646273009263e-03  -2.7711848384879691e-02  -2.0976247545788539e-02  -7.0923853451669138e-03  8.3963479912450414e-02  1.0735675572919606e-02  9.2863956230126374e-02  -3.6800711159967206e-02  3.5660907158187288e-02  3.8008472705340239e-02  3.8862638200114298e-02  5.2497630954256816e-02  4.0477456157971853e-02  7.3537976448211473e-02  -1.5040080704158980e-02  2.2458212258730363e-03  1.8369650460505722e-02  -6.3159845864470925e-03  -2.8028371340146414e-02  4.2341467709264710e-02  3.5322782776554616e-02  -8.8337870308758684e-02  -3.6167425288209369e-02  5.3444423595333121e-02  -5.2645651128389093e-02  1.0467397789676047e-01  4.9475349037500248e-02  7.5435501957065373e-02  -2.9116822958652464e-02  -8.6943674537986973e-02  6.4481412754030548e-02  7.3414439647546917e-02  -2.6619990150669865e-02  7.4713585805783805e-03  1.5677191280758840e-02  5.9446180981120533e-02  1.0329763666599327e-01  -8.5324234394639296e-03  7.2449112098048066e-02  -1.4801657811084534e-02  -4.5244651997859903e-02  -5.4475380824444170e-02  2.4013564734153177e-02  1.2888988953660163e-01  3.0641547194771631e-02  5.2855900262571552e-02  5.3586863712400915e-02  1.4849001890978746e-02  4.9622712472275801e-02  4.5326866267266612e-02  4.8809281296977820e-02  5.3885527054342457e-02  7.5000591137561481e-02  -1.1615794697982337e-02  4.2773464982653470e-02  5.7142386079871238e-02  9.1667098072719944e-02  -7.4829133221640282e-02  1.6371695967375230e-01  -4.0634379211355570e-02  5.7021827422948305e-02  1.0634535528192982e-01  5.5358266392883958e-02  1.7912633442434277e-02  2.8269658035098601e-03  6.9819961857671961e-02  1.0250559739336095e-02  -8.3988413239035904e-03  -1.4788292174156050e-02  1.7733437708358613e-02  8.7630743638063932e-02  1.2194376532459071e-01  3.6341869688308381e-02  1.3545767778128246e-02  7.7194233911496837e-02  -9.2736707589698708e-03  2.9077051341571510e-02  9.5518606085327182e-02  3.7293893599153721e-02  -2.9530485895799432e-03  1.9077564599685098e-02  9.3572638418933568e-02  3.2121216290884810e-02  -4.9132879193651224e-02  -3.2629526399094853e-02  1.3577900637918647e-01  3.0717955220219043e-02  2.9354560557482947e-02  1.5714515926089118e-03  4.0859247933304997e-02  8.8173822138546812e-02  1.3706042081096875e-01  5.6416886298417401e-02  1.0433915706391314e-01  7.2109021976117640e-02  -7.3535977986015813e-02  1.0409957636291478e-01  2.6285318011553753e-02  1.0844279935779358e-01  2.9485507290012480e-02  1.2759314090739934e-02  1.6180014075392567e-02  -9.3180014211902834e-03  7.8614954216107286e-02  -2.4817888249657600e-02  7.9091730202979355e-02  3.5969400951112382e-02  7.1906271700128269e-02  5.7094479384057428e-02  -1.0712201359010301e-03  7.2904469193646723e-02  -2.0457128180125315e-02  5.4722355412765936e-03  -8.5572091423134183e-02  8.8878166001257926e-03  8.3136260705851159e-02  -3.1335526603259714e-03  -7.0608135863592505e-02  -6.7727210045833474e-03  -1.5030655686753605e-03  -6.2151179652902129e-02  1.4176643301818667e-01  6.7088046543261309e-02  -5.6251741170233183e-02  -8.2213771298928224e-03  9.5536440460360875e-02  4.3233186647655561e-02  6.7634984721210573e-02  8.5431320345960904e-02  3.3742988333101943e-02  5.1334660054934506e-02  -5.7329435485638014e-02  8.3661535732614603e-02  1.0479077956394632e-01  -4.0977477416441775e-02  9.1860400803740003e-03  2.0529682489162000e-02  1.0110803207363354e-01  3.2440166673012985e-02  5.3504405403048530e-02  2.8854593577149302e-02  -5.5811054790459690e-03  1.1716763966609355e-01  4.3414770515607076e-02  -3.3144954510805881e-02  4.6754078996302878e-02  8.8256619941994671e-02  -1.0653866850319966e-03  -7.4320332539617395e-02  -6.3453355200124892e-02  3.5354409377810224e-02  1.0922233937279262e-01  1.1119243855985629e-02  -3.7193737031278026e-02  1.0277554936649422e-01  2.8916525490996516e-02  4.6448791706183629e-02  -2.0629169603327214e-02  5.6144382097766343e-02  1.3900412350714210e-02  -4.7780560673002280e-03  3.4670419778578342e-02  7.3061238507329096e-02  3.6083237658435546e-02  -7.2810377529925932e-02  8.2829217513073466e-03  2.9759166444013534e-02  2.7505012449022877e-02  2.3308418108785488e-02  -2.9626893984417150e-02  8.3924502928374278e-02  1.8955934382149712e-02  -2.5637060202627404e-02  -6.3784465678415558e-02  -1.2624368795122232e-02  1.9055766622545923e-02  8.6764944170675415e-02  9.4512654947631974e-02  -5.8717264335573463e-02  4.6470331839129631e-02  1.9775385373983042e-02  -4.2897638506957884e-03  7.1990114781308553e-02  5.7491409066254051e-02  -2.2409088605628086e-02  7.3721731156104059e-02  8.2016025741479731e-02  8.8114661487346521e-02  -5.4601124283161169e-02  1.1536273587271095e-01  1.0847156043249699e-01  2.0323610567425630e-02  6.2701029144803955e-03  2.6308578498866853e-02  2.4798222791992747e-02  4.6126284527305737e-02  9.3193197805465214e-02  1.1850446969455501e-01  2.8879014645321704e-02  -8.5098357242202986e-03  4.9288826974603100e-02  5.6708723188938451e-02  -1.2883401975018876e-02  5.9079148728838089e-03  6.9785686164549653e-03  2.3782291215170191e-02  -1.9216451589191812e-02  6.9646105846911666e-02  1.3289419062037563e-02  1.3207069442772836e-02  1.1514617873485616e-01  7.8660927824841909e-02  4.5842948641864931e-02  1.0165080439493122e-01  -5.9883353470804278e-02  1.2813569937762200e-02  5.9977390296696138e-02  3.4556343165596796e-02  1.0189752865511337e-01  8.7369948274790971e-02  8.1513913469499245e-03  1.0188000235244543e-01  -9.5352184423990616e-03  -1.1345291706873322e-02  -4.5860604848652030e-03  -2.3575393003725915e-02  -1.2248936581223143e-02  5.8171141609518487e-02  -6.3837432342826808e-02  3.6800816017246413e-02  -5.5452246239102082e-02  1.5323440065588773e-01  4.9434731165018966e-02  -3.7708083094256425e-02  6.5453739740925360e-02  2.6200832059307507e-02  3.7496539656610532e-02  9.9153463513607681e-02  1.0400054768445409e-01  7.7855909138833043e-02  6.4530952781329795e-02  -3.8174354965818211e-02  7.1396713407315265e-02  -9.0056067952703719e-04  9.8862904102538646e-02  -1.0620812123203