<?xml version="1.0"?>
<VTKFile type="UnstructuredGrid"  version="0.1"  >
<UnstructuredGrid>
<Piece  NumberOfPoints="4820" NumberOfCells="9262">
<Points>
<DataArray  type="Float64"  NumberOfComponents="3"  format="ascii">0.004357787137382907 0.04980973490458728 0  3.061616997868383e-18 0.05 0  -0.004357787137382901 0.04980973490458728 0  -0.004357787137382912 -0.04980973490458728 0  -9.184850993605149e-18 -0.05 0  0.004357787137382894 -0.04980973490458728 0  -0.2 -0.2 0  0.55 -0.2 0  2 -0.2 0  2 0.21 0  0.55 0.21 0  -0.2 0.21 0  0.002180969358710071 0.04995241107951016 0  -0.002180969376377175 0.04995241107873878 0  -0.00218096936205605 -0.04995241107936408 0  0.002180969376762267 -0.04995241107872198 0  -0.00681459716460041 0.04953343583362881 0  -0.009254746165878699 0.04913603233275104 0  -0.01167226821331763 0.04861849601495686 0  -0.01406125270101674 0.04798209220613614 0  -0.01641585879600313 0.04722837685110179 0  -0.01873032971283131 0.04635919271135586 0  -0.02099900679895535 0.04537666485604058 0  -0.02321634335656028 0.04428319547131056 0  -0.02537691821523419 0.04308145798249308 0  -0.02747544897576464 0.04177439052314415 0  -0.0295068049360126 0.04036518874560236 0  -0.03146601963036187 0.03885729800979068 0  -0.03334830296690066 0.03725440496408185 0  -0.03514905295182857 0.03556042852089316 0  -0.03686386691867947 0.03377951029547187 0  -0.03848855232085789 0.03191600445301051 0  -0.04001913696023074 0.02997446708380811 0  -0.04145187870654155 0.02795964505672717 0  -0.04278327464009846 0.02587646442367869 0  -0.04401006963121561 0.02373001835346012 0  -0.04512926428658137 0.02152555469556806 0  -0.04613812228218922 0.0192684631528764 0  -0.04703417705848439 0.01696426209509693 0  -0.04781523785065199 0.0146185850644164 0  -0.04847939503850856 0.01223716702101564 0  -0.04902502482533359 0.009825830289366174 0  -0.04945079319725205 0.00739047036139188 0  -0.04975565919278197 0.004937041451287537 0  -0.04993887744399172 0.002471541954727039 0  -0.05000000000000002 -2.179027782864273e-10 0  -0.04993887742290181 -0.002471542380860383 0  -0.04975565915220143 -0.004937041860259632 0  -0.04945079313853181 -0.007390470754298181 0  -0.04902502474990915 -0.009825830665689136 0  -0.04847939494791073 -0.01223716737993267 0  -0.04781523774597484 -0.01461858540679994 0  -0.04703417694176702 -0.01696426241870103 0  -0.04613812215449838 -0.01926846345863071 0  -0.04512926414810409 -0.02152555498589172 0  -0.04401006948618459 -0.02373001862243695 0  -0.04278327448542859 -0.02587646467940464 0  -0.04145187854660255 -0.0279596452938465 0  -0.04001913680095092 -0.02997446729646378 0  -0.03848855215910903 -0.03191600464806871 0  -0.03686386675419343 -0.0337795104749769 0  -0.03514905278746659 -0.03556042868335375 0  -0.0333483028093871 -0.0372544051050802 0  -0.03146601947545011 -0.03885729813523576 0  -0.02950680478964417 -0.04036518885259716 0  -0.02747544883924331 -0.04177439061293563 0  -0.0253769180845661 -0.04308145805946247 0  -0.02321634324304243 -0.04428319553082456 0  -0.02099900669895044 -0.04537666490231995 0  -0.01873032963061061 -0.04635919274457518 0  -0.01641585872377311 -0.04722837687620784 0  -0.01406125264610136 -0.04798209222222922 0  -0.01167226817214395 -0.04861849602484179 0  -0.009254746140787012 -0.04913603233747704 0  -0.006814597153124481 -0.04953343583520761 0  0.006814597163087254 -0.04953343583383697 0  0.009254746162416328 -0.04913603233340317 0  0.01167226820749043 -0.04861849601635584 0  0.01406125269526824 -0.04798209220782076 0  0.01641585878869484 -0.04722837685364205 0  0.01873032970478165 -0.04635919271460813 0  0.02099900678940205 -0.04537666486046157 0  0.02321634334324823 -0.04428319547828967 0  0.02537691819928517 -0.04308145799188777 0  0.02747544895679411 -0.04177439053562125 0  0.02950680491571239 -0.04036518876044175 0  0.03146601960788315 -0.03885729802799359 0  0.03334830294823126 -0.03725440498079377 0  0.03514905293079007 -0.03556042854168828 0  0.03686386690162479 -0.03377951031408381 0  0.03848855230703181 -0.03191600446968382 0  0.04001913694627814 -0.02997446710243633 0  0.04145187869083342 -0.02795964508001545 0  0.04278327462632659 -0.02587646444644864 0  0.04401006962056583 -0.02373001837321138 0  0.04512926427712953 -0.02152555471538427 0  0.04613812227399118 -0.01926846317250652 0  0.04703417705106056 -0.01696426211567986 0  0.04781523784312168 -0.01461858508904696 0  0.04847939503319636 -0.01223716704206073 0  0.04902502482144694 -0.009825830308758294 0  0.04945079319422288 -0.007390470381660498 0  0.0497556591909245 -0.004937041470007301 0  0.04993887744294273 -0.002471541975922472 0  0.05000000000000002 1.960026680888904e-10 0  0.04993887742406512 0.002471542357355427 0  0.0497556591543939 0.004937041838163785 0  0.04945079314184119 0.007390470732154637 0  0.04902502475403982 0.009825830645079567 0  0.04847939495309415 0.01223716735939779 0  0.04781523775084436 0.01461858539087247 0  0.04703417694693356 0.01696426240437658 0  0.04613812215952091 0.01926846344660432 0  0.04512926415455419 0.02152555497236883 0  0.04401006949386337 0.02373001860819578 0  0.04278327450092428 0.0258764646537846 0  0.04145187856220046 0.02795964527072164 0  0.04001913681616228 0.02997446727615497 0  0.03848855217730672 0.03191600462612355 0  0.03686386677147228 0.03377951045612033 0  0.03514905280168957 0.03556042866929533 0  0.0333483028196165 0.03725440509592335 0  0.03146601948352148 0.03885729812869969 0  0.02950680480117144 0.04036518884417076 0  0.02747544884918156 0.04177439060639914 0  0.02537691809390653 0.04308145805396053 0  0.02321634324922249 0.04428319552758454 0  0.02099900670813883 0.04537666489806784 0  0.01873032963827596 0.04635919274147818 0  0.01641585873206496 0.04722837687332573 0  0.01406125264532184 0.04798209222245766 0  0.01167226817007835 0.04861849602533769 0  0.009254746139683721 0.04913603233768484 0  0.006814597151967234 0.04953343583536681 0  -0.1875196675247935 -0.2 0  -0.1748316574073939 -0.2 0  -0.1619325191073485 -0.2 0  -0.1488187266915765 -0.2 0  -0.1354867190390691 -0.2 0  -0.1219328601465505 -0.2 0  -0.1081534589822707 -0.2 0  -0.09414476550972861 -0.2 0  -0.07990295838040007 -0.2 0  -0.06542416251428446 -0.2 0  -0.05070442829752772 -0.2 0  -0.03573975778997357 -0.2 0  -0.02052606446908414 -0.2 0  -0.005059208186730002 -0.2 0  0.0106650220181323 -0.2 0  0.02665090828184707 -0.2 0  0.04290281009001662 -0.2 0  0.05942514756265038 -0.2 0  0.07622242703544463 -0.2 0  0.09329921759985482 -0.2 0  0.110660176225582 -0.2 0  0.1283100240439488 -0.2 0  0.146253576648871 -0.2 0  0.1644957213272042 -0.2 0  0.1830414174264912 -0.2 0  0.2018957247245375 -0.2 0  0.2210637776854531 -0.2 0  0.2405507899571802 -0.2 0  0.2603620802338072 -0.2 0  0.2805030369240936 -0.2 0  0.3009791461642926 -0.2 0  0.3217959913512258 -0.2 0  0.3429592352388189 -0.2 0  0.3644746444814039 -0.2 0  0.3863480802046066 -0.2 0  0.4085854997083186 -0.2 0  0.4311929582382759 -0.2 0  0.4541766169094176 -0.2 0  0.4775427325114808 -0.2 0  0.5012976686781503 -0.2 0  0.5254479007761028 -0.2 0  0.5750000000714078 -0.2 0  0.6000000001173931 -0.2 0  0.6250000002059986 -0.2 0  0.6500000002385247 -0.2 0  0.675000000336103 -0.2 0  0.7000000003686291 -0.2 0  0.7250000004542437 -0.2 0  0.7500000005062106 -0.2 0  0.7750000005716368 -0.2 0  0.8000000006490264 -0.2 0  0.8250000006890297 -0.2 0  0.8500000007910944 -0.2 0  0.8750000008565204 -0.2 0  0.9000000009518555 -0.2 0  0.9250000010408349 -0.2 0  0.9500000011343006 -0.2 0  0.9750000012251494 -0.2 0  1.000000001296183 -0.2 0  1.0250000013646 -0.2 0  1.050000001466665 -0.2 0  1.075000001557888 -0.2 0  1.100000001673038 -0.2 0  1.125000001762017 -0.2 0  1.150000001851744 -0.2 0  1.175000001947827 -0.2 0  1.200000002046153 -0.2 0  1.225000002155695 -0.2 0  1.25000000221813 -0.2 0  1.275000002244301 -0.2 0  1.300000002154947 -0.2 0  1.325000002108962 -0.2 0  1.350000002019609 -0.2 0  1.375000001973624 -0.2 0  1.400000001884271 -0.2 0  1.42500000182707 -0.2 0  1.450000001748932 -0.2 0  1.475000001659579 -0.2 0  1.500000001570226 -0.2 0  1.525000001480872 -0.2 0  1.550000001391519 -0.2 0  1.575000001345534 -0.2 0  1.60000000125618 -0.2 0  1.625000001210195 -0.2 0  1.650000001120842 -0.2 0  1.675000001066632 -0.2 0  1.700000000985504 -0.2 0  1.725000000905871 -0.2 0  1.750000000850165 -0.2 0  1.775000000760812 -0.2 0  1.800000000714827 -0.2 0  1.825000000625473 -0.2 0  1.85000000053612 -0.2 0  1.875000000446767 -0.2 0  1.900000000357413 -0.2 0  1.92500000026806 -0.2 0  1.950000000178707 -0.2 0  1.975000000089353 -0.2 0  2 -0.1758823529236379 0  2 -0.1517647057870068 0  2 -0.1276470586430415 0  2 -0.103529411528254 0  2 -0.07941176439513059 0  2 -0.05529411724717925 0  2 -0.03117647008918309 0  2 -0.007058822960843009 0  2 0.01705882406928105 0  2 0.0411764710640091 0  2 0.06529411804247409 0  2 0.08941176503720205 0  2 0.11352941203193 0  2 0.137647059026658 0  2 0.1617647060111818 0  2 0.185882353005272 0  1.974999999927471 0.21 0  1.949999999833257 0.21 0  1.924999999782412 0.21 0  1.899999999688198 0.21 0  1.874999999637353 0.21 0  1.849999999543139 0.21 0  1.824999999448926 0.21 0  1.799999999354712 0.21 0  1.774999999260499 0.21 0  1.749999999166286 0.21 0  1.724999999082914 0.21 0  1.699999998977859 0.21 0  1.674999998902712 0.21 0  1.649999998789432 0.21 0  1.624999998688863 0.21 0  1.599999998581938 0.21 0  1.574999998495201 0.21 0  1.549999998413699 0.21 0  1.524999998318364 0.21 0  1.499999998273501 0.21 0  1.474999998238357 0.21 0  1.449999998189755 0.21 0  1.424999998038714 0.21 0  1.399999997975905 0.21 0  1.37499999792992 0.21 0  1.349999997902628 0.21 0  1.324999997821126 0.21 0  1.299999997699994 0.21 0  1.274999997636438 0.21 0  1.249999997681301 0.21 0  1.224999997765794 0.21 0  1.199999997857764 0.21 0  1.174999997916835 0.21 0  1.149999998014039 0.21 0  1.124999998067875 0.21 0  1.09999999816508 0.21 0  1.074999998218916 0.21 0  1.049999998316121 0.21 0  1.02499999838865 0.21 0  0.999999998467161 0.21 0  0.9749999985209969 0.21 0 
[...]
<PointData  Scalars="pressure"> 
<DataArray  type="Float64"  Name="pressure"  format="ascii">-8.3131305225041285e-01  -6.6657541638536433e-01  -7.8419951235587726e-01  -1.0302663081507586e+00  -1.0424287181359797e+00  -7.2714045235847058e-01  4.3898837062369278e-01  -6.9368008753886282e-02  0.0000000000000000e+00  0.0000000000000000e+00  1.4360491890504243e-01  4.5283046813555816e-01  -7.2996056058159853e-01  -6.6035601504249919e-01  -1.1135946687989497e+00  -9.0694499762436376e-01  -7.8353293850470496e-01  -8.0296501957433464e-01  -8.1151133020624966e-01  -8.0779132574678081e-01  -7.9071335469449477e-01  -7.5650993091114094e-01  -7.0785618785931181e-01  -6.4508859374049876e-01  -5.6394848625183303e-01  -4.6526445224107926e-01  -3.5196330255682184e-01  -2.2819603799078023e-01  -9.2043333284231463e-02  6.0162086648330310e-02  2.1586645119424011e-01  3.8212403039783283e-01  5.4976170884756981e-01  7.1589563333965434e-01  8.8723746201212095e-01  1.0468241385819090e+00  1.2063197646432438e+00  1.3543141364956979e+00  1.4882304385436564e+00  1.6116534928037161e+00  1.7164944102900028e+00  1.8034628166251425e+00  1.8722021756686822e+00  1.9218349604089611e+00  1.9460341857482941e+00  1.9504174606441385e+00  1.9330233644831487e+00  1.8926390790691610e+00  1.8320293228172337e+00  1.7499063550330283e+00  1.6503093588931814e+00  1.5347395124842729e+00  1.4004573684965582e+00  1.2565581064508951e+00  1.0986971360058657e+00  9.3163092014147153e-01  7.6006871180389113e-01  5.8335905496867302e-01  4.0919328428408908e-01  2.3551900545952556e-01  6.0058918673427934e-02  -9.6068472202328031e-02  -2.5946714328946668e-01  -4.0026529829670571e-01  -5.3567705689249612e-01  -6.5238205102521141e-01  -7.6161104197831164e-01  -8.5008202595588345e-01  -9.2640106255782340e-01  -9.8721947038594526e-01  -1.0294473103578305e+00  -1.0607727613721787e+00  -1.0750526219468890e+00  -1.0820993025798489e+00  -1.0724013898642124e+00  -7.3731371841117810e-01  -7.0601006884972595e-01  -6.7241887526115052e-01  -6.3914235007409270e-01  -6.0734583618511295e-01  -5.7888600335671470e-01  -5.5283941041805473e-01  -5.3020220471167812e-01  -5.1021157474894385e-01  -4.9294751330727188e-01  -4.7828669694412052e-01  -4.6541157224825619e-01  -4.5494160020545271e-01  -4.4620090708763305e-01  -4.3855831097382308e-01  -4.3230177650476131e-01  -4.2676629206992472e-01  -4.2189960249849562e-01  -4.1724575624284910e-01  -4.1279081023412800e-01  -4.0853993902770153e-01  -4.0417178387074681e-01  -3.9980114566259567e-01  -3.9561919414765651e-01  -3.9150634972723869e-01  -3.8779814763675535e-01  -3.8460159939083766e-01  -3.8180883647348035e-01  -3.7995364764617945e-01  -3.7890340294133690e-01  -3.7861421603188794e-01  -3.7922458747604143e-01  -3.8057054341203278e-01  -3.8259416707485189e-01  -3.8526345767368503e-01  -3.8835278206977475e-01  -3.9167384619487094e-01  -3.9520159179255071e-01  -3.9873037352250945e-01  -4.0239827319923899e-01  -4.0595908716375761e-01  -4.0976664967864679e-01  -4.1379868305667306e-01  -4.1806686740524751e-01  -4.2343288025827258e-01  -4.2906964683732324e-01  -4.3692288463618173e-01  -4.4605619294119142e-01  -4.5687534177430017e-01  -4.7046681000815671e-01  -4.8626010990860730e-01  -5.0502636275681956e-01  -5.2677541289617180e-01  -5.5197789098385097e-01  -5.8088332987416091e-01  -6.1332021453735852e-01  -6.4983091335445020e-01  -6.9130027505588798e-01  -7.3467929222245587e-01  4.3833934020149590e-01  4.3738579438239716e-01  4.3518941464052641e-01  4.3192266160776838e-01  4.2672491500473519e-01  4.1925696301039611e-01  4.0863367352935742e-01  3.9447526939095656e-01  3.7561624159953466e-01  3.5190694822860702e-01  3.2272668669909460e-01  2.8709319571845615e-01  2.4750614921395236e-01  2.0228500918396938e-01  1.5506678750252648e-01  1.0707030944849572e-01  5.8557082944674821e-02  1.4740644797997348e-02  -2.6881421066780670e-02  -6.3065381946475374e-02  -9.2949545064192854e-02  -1.1716147555969388e-01  -1.3509708229586995e-01  -1.4562396084871057e-01  -1.4964218069962729e-01  -1.4662388082017960e-01  -1.3861844752067021e-01  -1.2613902548183040e-01  -1.0607034849937537e-01  -8.5459042278648478e-02  -6.0935702621228126e-02  -3.7283404396488209e-02  -1.3286052845724561e-02  5.1159750629181551e-03  1.8929505321969402e-02  2.4317203127120698e-02  1.7707379265044426e-02  1.3527027956630245e-03  -2.1482247189955346e-02  -4.8233309181110413e-02  -6.6546717965806648e-02  -5.6582354040016540e-02  -2.7919494695039640e-02  9.0789505877585421e-03  4.5751615159549702e-02  7.8083472751815250e-02  1.0188496647844193e-01  1.1670513723297966e-01  1.2500168616197771e-01  1.2767441042067834e-01  1.2709061484863357e-01  1.2238873049384974e-01  1.1489843068974981e-01  1.0624929591180181e-01  9.6397293671978204e-02  8.8102792418775791e-02  8.0993976278867383e-02  7.5614340255946780e-02  7.0520377924355768e-02  6.3714760732925424e-02  5.5110234590082900e-02  4.6057910493560721e-02  3.8670070330078354e-02  3.6570323811440417e-02  4.2036325757910518e-02  5.4002300134645090e-02  6.9744861881912687e-02  8.7169841704282394e-02  9.9202397651179303e-02  1.0572076598026781e-01  1.0484513788334726e-01  9.9601558467189960e-02  8.9776943592332792e-02  7.8295243670597134e-02  6.5385729057263461e-02  5.1702566297538471e-02  3.8029581601581930e-02  2.3874649070348735e-02  1.1153228030871359e-02  2.1299290847353594e-03  -1.9492669860345839e-03  3.0937980552038845e-03  1.6480144852264313e-02  3.5435908882525867e-02  5.7397402074160497e-02  7.5070563020044195e-02  8.5302618246724832e-02  8.7159430859804723e-02  7.9019858126526871e-02  6.5132061948209488e-02  4.8467321935762822e-02  3.1148624317099066e-02  1.3718792891868821e-02  -1.0412550430836259e-03  -1.2669715991207649e-02  -1.8587826079088897e-02  -1.7834139658768365e-02  -1.0786788655315361e-02  0.0000000000000000e+00  0.0000000000000000e+00  0.0000000000000000e+00  0.0000000000000000e+00  0.0000000000000000e+00  0.0000000000000000e+00  0.0000000000000000e+00  0.0000000000000000e+00  0.0000000000000000e+00  0.0000000000000000e+00  0.0000000000000000e+00  0.0000000000000000e+00  0.0000000000000000e+00  0.0000000000000000e+00  0.0000000000000000e+00  0.0000000000000000e+00  1.6154102866650786e-02  2.8349466681637896e-02  3.5087474010140736e-02  3.4471048090468630e-02  2.6599182754842736e-02  1.4683423299697886e-02  1.2962039909276981e-03  -9.3274955635698539e-03  -1.5179693940164749e-02  -1.5665778647489529e-02  -1.1239716941686481e-02  -2.1006795643765158e-03  9.2809615414235231e-03  2.1972655617264525e-02  3.5487307641426796e-02  4.9845223328956009e-02  6.4139693667942949e-02  7.6240332620360146e-02  8.5586550561798744e-02  8.8872668398585611e-02  8.4606273046430189e-02  7.2875572735054503e-02  5.7355432962626698e-02  4.0804148057963910e-02  2.9404818023564573e-02  2.3833483535407672e-02  2.4524111311059364e-02  3.0826821072979998e-02  3.9128625286482220e-02  4.9687090895549887e-02  6.0722380419392145e-02  7.1659825464689020e-02  8.2256385327599033e-02  9.2488147433881784e-02  1.0027477520054096e-01  1.0557350618202727e-01  1.0730859209052729e-01  1.0513007864900606e-01  9.9886091072137098e-02  9.2632349253564172e-02  8.5902530300103114e-02  8.1087575353566366e-02  7.9301096855068587e-02  7.8788102871629115e-02  7.6464039160371797e-02  6.8336959214853818e-02  5.3060670981842410e-02  3.4833621558544393e-02  1.8778820027234841e-02  9.5062855739667263e-03  1.3773190130374167e-02  3.0715560892684155e-02  6.0851193199655838e-02  9.6722527536497488e-02  1.2837675720927627e-01  1.5077300252192255e-01  1.5709269426139233e-01  1.1605728321626176e-01  7.8732949082846448e-02  3.3342574452303313e-02  -8.9066249364017462e-03  -4.7933697156862048e-02  -7.9377436905215648e-02  -1.0235603856666736e-01  -1.1733759938038825e-01  -1.2768242557245535e-01  -1.3524734287619838e-01  -1.3937670261435961e-01  -1.4270300919003173e-01  -1.4433310741182928e-01  -1.4373955274332151e-01  -1.4183332667381443e-01  -1.3475766631847713e-01  -1.2586688625024400e-01  -1.0978882816988765e-01  -9.1679481688795403e-02  -6.6414928487661479e-02  -3.6297774519592249e-02  -3.0050635473158884e-03  3.7053114832332416e-02  7.8715132477918517e-02  1.2298572774404104e-01  1.6823782304093154e-01  2.1257847837729443e-01  2.5463667109426513e-01  2.9372750239041906e-01  3.2812608227450019e-01  3.5705488672490532e-01  3.8177362825291877e-01  4.0113091852647348e-01  4.1603923206282822e-01  4.2775200047748302e-01  4.3612564994734676e-01  4.4227967070613328e-01  4.4653948321460796e-01  4.4937694176669307e-01  4.5112723153202705e-01  4.5214529776754170e-01  4.5268972617962594e-01  4.5360917877471796e-01  4.5700700543369011e-01  4.6404388751417930e-01  4.7557449955631320e-01  4.9240283038532251e-01  5.1462794891283425e-01  5.4208123397592956e-01  5.7418893779533331e-01  6.1002897499071951e-01  6.4745644165728000e-01  6.8492936506530777e-01  7.1954488436940955e-01  7.4843476871166448e-01  7.7031369047739673e-01  7.8212175135626671e-01  7.8332705013287462e-01  7.7316923821295791e-01  7.5286596139413120e-01  7.2369382896082679e-01  6.8906799998189194e-01  6.5039589033825762e-01  6.1076322013109507e-01  5.7249171104852170e-01  5.3780392300531654e-01  5.0769750961814919e-01  4.8323459949441133e-01  4.6461714010435123e-01  4.5159259525385853e-01  4.4391587308302755e-01  4.3980033221615372e-01  4.3885922501776686e-01  -7.4283232333406585e-02  -8.7843855629775341e-02  -9.2288070018208296e-02  -7.0297184020194844e-02  -3.2319716067293287e-02  1.0534952592820571e-02  4.4767292280153546e-02  6.5255522264268492e-02  8.5309944557195927e-02  1.3275456303957855e-01  1.7763186738336703e-01  1.7074992636296565e-01  1.7570696279658043e-01  1.7053030064743627e-01  1.5847143633697636e-01  1.4593239742997102e-01  4.5265075503893366e-02  -1.2156746436340238e-03  2.2397169271501042e-02  -6.8156641056839407e-03  3.7894730979435094e-03  -3.8129331618028534e-02  1.9207504868317585e-02  9.5058768492045961e-02  9.1394271810478128e-02  7.3046133784059261e-02  1.3379988945917295e-01  -7.8429788314651819e-03  1.1659812240904015e-01  5.1557551873830557e-02  1.1691386679526045e-01  3.9210160478832336e-02  -1.6750821998149028e-02  3.5823813105871627e-02  6.6365516433757446e-02  2.3742944993852762e-02  7.6748614127309836e-02  -3.9932976958699649e-02  -1.2636160594487529e-02  6.3698310192357055e-02  5.7223026085280598e-02  7.4888141085795168e-02  1.0229441638294527e-02  8.6887405539745860e-02  -1.9061065195230965e-02  6.0514798288378913e-02  -3.5794023773765435e-02  1.3053433906017298e-01  2.5600080092215344e-02  -1.1759803976731717e-02  5.1831353217192094e-02  4.1009594334960285e-02  8.7546245106266907e-02  1.0516945178872956e-02  1.9972708486196776e-02  4.4106514279497751e-02  2.4835802342202409e-02  1.0902329168949466e-02  1.1187734330564522e-01  2.1600610954720288e-02  4.5108538964555668e-02  1.0249049221805637e-01  1.5415239409914122e-01  -3.1477097592435679e-02  -4.4876400556382260e-03  4.9788208883702688e-02  9.8011465508371004e-02  1.9650405357553866e-04  7.1005212913334670e-02  7.8882265020434106e-02  6.7286751889936908e-02  6.0096886094716397e-02  1.1188921286142256e-01  1.0418259050879543e-01  9.6975929115500001e-02  3.0123618241713970e-02  -2.6665825598458974e-02  2.2178101581328196e-02  4.6876136682445058e-02  1.0364629780277652e-01  1.3588227574998124e-01  -1.5603386644248153e-02  8.3088221859314457e-02  1.6452067518619849e-02  -1.2700452682706890e-02  7.4323224952212476e-03  4.7739965563929440e-02  -4.9371010423508464e-02  -2.4237837049123278e-03  2.4558573591582219e-03  1.6335660152857725e-02  1.1002229399202935e-01  6.0182645661495332e-03  -2.1984346478195627e-02  4.6988881632594626e-02  8.5974047506216150e-02  3.1495732807765631e-02  8.8872113553369866e-02  -3.5862177295738665e-02  5.4280906240695904e-02  1.0775082134080674e-01  3.6760781202599228e-02  -5.6834378639062037e-02  -8.5505137638556550e-03  1.2543991917476077e-01  3.7697696682522888e-02  5.4658995183486742e-02  -1.5667458992267447e-02  -1.6016820451262580e-02  4.9203720145475915e-02  -5.1905326708556104e-02  -1.7040171999843225e-02  1.6204006273153451e-02  4.1813750713268115e-02  7.3097868486397294e-02  5.4513768063448736e-02  -2.9159962180743976e-03  5.6269084218302318e-02  8.8307422471162259e-02  1.4975343677923166e-02  1.0694620563848835e-01  -7.6659023382061431e-02  4.6563985514816624e-03  7.9488377086179896e-02  7.6892516393845436e-02  7.6446710891477906e-02  2.8375774128504401e-02  3.0151011958683031e-02  8.3074807871551762e-02  8.7356736165026261e-03  7.3617829195953915e-02  -2.2952311737734769e-02  1.3284576021233607e-01  6.9098466168870748e-02  -6.3781717836098465e-03  7.7059137261239696e-02  -4.2892298190851677e-02  3.5822118966423136e-02  8.0951321015601804e-02  -1.0942317948973896e-02  3.5709724749413793e-02  6.1724090169206179e-02  4.2506954737323091e-02  1.1053355419160994e-01  4.3412113030818572e-02  5.9314873357857199e-02  1.3321281558981983e-02  3.8448193238407362e-02  8.3614732001410688e-02  6.7867742412204887e-03  8.6928435378213889e-02  -1.7701219250344659e-02  5.8510032788940819e-02  1.4822457624963792e-01  2.9613001732729075e-02  1.0932879270676678e-01  -4.0400166213292885e-02  -2.3690835689627071e-02  1.6583113674061928e-01  4.7171614451495161e-02  -2.7533897257974053e-02  3.5297008117668470e-02  5.1148595743567248e-02  7.9911434954754251e-02  8.7299168980649766e-02  5.2970559141590275e-02  -2.4257681592128738e-02  8.5123075906550744e-02  3.4067993991178259e-03  6.6155066337625704e-02  -9.5644373460462718e-03  1.1263320893873617e-01  1.0492330097467857e-01  7.8141543454764512e-02  2.3952414855048992e-02  9.0285471621941421e-02  5.9127058309670397e-02  1.0636546551073586e-01  7.3070100260076765e-02  1.6539757930474151e-02  3.8383695189666930e-02  1.0015448638878267e-01  -1.5797289317587419e-03  -3.4136311370555040e-03  8.7504514276458001e-02  5.2044635969511727e-02  8.2047275629017327e-02  6.0946800919412625e-02  3.3023760522992968e-02  1.0989189886987565e-01  3.4284513329753040e-02  2.3593971202268717e-02  -7.4789723152137539e-03  6.8961666022260238e-03  3.3720135858783182e-02  5.4670330194357200e-02  1.6985750570318106e-01  -2.1231119808596769e-02  -5.2683705983512796e-02  2.8681851304666758e-02  -2.7706180079646266e-02  1.4484940212869019e-02  9.8991304181330494e-02  2.4309412917558396e-02  2.0016399604276414e-02  7.7290576090811053e-02  -2.8486122494972455e-02  -7.0352138964067348e-02  -4.1803562053833367e-03  1.1526538567003336e-01  8.8267176140356507e-02  4.3022908352405931e-03  8.2042116291326322e-02  5.3646208948912234e-02  1.0022516902414005e-01  5.2544939826342528e-02  2.2238557519099460e-02  1.0538160853405851e-01  4.1225183362256931e-02  1.2527384580367190e-01  -4.7081853734504677e-03  -1.0591281646850335e-02  2.1222967046761894e-03  9.1295593095686731e-02  -5.4981525159752256e-02  1.2364916701073730e-01  2.3624718207900113e-02  1.9025780350818363e-02  1.2766874782011578e-01  1.1801909503579754e-01  7.4821998198154077e-02  -6.5690456043107168e-03  -1.0588570049216141e-01  3.8273083881421172e-02  1.1293567000745923e-01  -3.5029031073397041e-02  5.3890715625435431e-02  3.3040950182229377e-02  3.3434543278519677e-02  -2.4690701611709498e-02  3.6259904838045344e-02  3.8775484903739998e-02  -2.4671978874824634e-02  -2.0901179666024977e-02  -3.3223568651307406e-02  1.1266796193608801e-01  3.3396056806788303e-02  3.4299836181031065e-02  1.0274692493760094e-01  -3.4871598260644590e-04  4.0527770172970219e-03  -9.6998568718152343e-03  7.2188823519616058e-02  5.5799096125594271e-02  3.4491563776960797e-02  7.9414419916309112e-02  9.1031370168640449e-02  3.2125419897944640e-03  1.6204614962318759e-02  2.1690232108238405e-02  -8.2780345262337338e-03  1.3849738919480180e-02  9.3396846935841937e-02  6.6258430439836466e-02  3.2470847879483206e-02  6.6571086843963442e-02  9.1646487028842372e-02  3.0189525712613574e-02  -5.7703930592455245e-02  4.5657389355342672e-02  -1.5624201349788161e-02  4.2319347986800288e-02  1.2759161996688759e-01  8.8275729671499881e-02  8.6806081115084144e-02  2.4384279141873445e-02  4.6747523747723962e-03  1.3256204226788232e-01  -2.1666489945203420e-02  1.0818049183465897e-02  3.9968816003962307e-02  6.4772898630000061e-02  4.8494337930542954e-02  5.9362455729476009e-02  9.3671000976416396e-02  3.7163269409908925e-02  7.8070416786635191e-02  8.8393884758817404e-02  6.7288031592479092e-02  -6.5125377447829026e-03  -5.3848595725891735e-02  6.4795142863738026e-02  5.0502289513207566e-02  3.0765849620845290e-02  -1.5482260917545711e-02  7.0547719238457693e-02  5.0970427587439117e-02  -8.8743996792706545e-02  -7.4426824415164041e-03  1.1524923994980017e-01  6.4816466634455630e-02  8.8398828184430095e-02  1.0762202844687425e-01  -2.8001733917501322e-02  -6.6618841896959893e-02  1.8634564491600603e-01  3.0590160656697646e-02  6.6559150441134377e-02  1.1203655450506461e-01  1.0021793279250824e-01  8.0878532530692437e-02  3.1700137302123295e-02  8.4390621118366170e-03  2.6980794745744604e-02  1.2099039948925246e-02  1.0193981634522731e-01  1.4760165471683706e-02  1.4821828352369715e-01  -2.5526493716321062e-02  -2.4931830731562011e-02  1.0027290246442407e-01  -1.4724224640191585e-02  1.6116008923534899e-02  1.4029029600880455e-01  -1.9484556389352859e-02  4.1133067439688344e-02  -1.9292211732965588e-02  1.2695816482273020e-01  3.3841726673177835e-03  4.4923444209985966e-02  5.1390125007882252e-02  5.0800671324069423e-02  1.1327023957324459e-01  5.3933454405444010e-02  2.1897091674467399e-02  6.7245103756411642e-02  6.8561164242000303e-02  -2.8113904907069300e-02  6.0504284031878816e-04  1.2553684713617103e-01  1.9460382837975611e-02  3.1967674231023480e-02  4.8839912070719090e-03  2.9967038206259174e-02  1.0236167369452842e-01  1.2882411334262229e-02  2.7054900605443639e-02  5.2832641817519052e-02  1.0130515115868328e-02  -1.2651369221368568e-02  8.7763978938514161e-04  -1.8291895778396808e-02  5.1452511968242048e-02  7.6556281387749267e-02  4.5738085363344949e-02  1.0046709834357617e-01  1.8018787267185955e-02  8.3967527808807160e-02  7.6646831444822455e-02  7.9045460061662159e-02  4.1474753301338756e-02  7.3047051939111138e-02  -1.6044856194369798e-02  2.8868463910769786e-02  -2.2633051070279585e-02  7.9555603574061828e-02  -2.4809414017535725e-02  3.5254260812731107e-02  4.5194547452981543e-02  3.5184417009895150e-02  -3.3828541957556246e-02  -5.8079612161616757e-02  5.6098181422143532e-02  3.1622017824145823e-02  5.3097347832025708e-02  6.5371829194592057e-02  3.5061547414433014e-02  1.0749637976944885e-01  -1.3985284411826601e-02  -5.1039646151015791e-02  -3.1905692504997855e-02  1.1165945795961849e-01  -3.3336990385901523e-02  6.2622529406911320e-02  7.1846908668424622e-02  8.8982306021625115e-02  -4.2272261851859314e-03  9.2049070789690074e-02  -9.9837805700139469e-03  1.1839838046081778e-01  2.0398196844040777e-03  3.9006331905576432e-02  -3.0685428035229636e-02  3.2553322300384866e-03  -2.1709753858232442e-02  6.2274300951120722e-02  1.9007913928045919e-02  4.9608795286587411e-02  6.5435565763854522e-02  7.3970168945135320e-02  3.6658356635622426e-02  4.1143218998306454e-02  -1.0683749216899574e-02  7.9195292549785606e-02  9.8470425254004026e-02  -2.2174588170561223e-03  7.7057219910129385e-02  8.1664629008384337e-02  3.0983651305384340e-02  5.1912908733948208e-02  2.6725817770446992e-03  8.9692120570891737e-02  -1.3487449048266462e-02  2.6966401918364562e-02  7.0707261740194469e-02  4.5612661093559936e-02  1.1532659778988352e-02  -4.1700760096320504e-03  -2.9536109092689909e-02  1.6160181327860804e-01  4.1263031228396953e-02  9.1183110361303624e-02  1.1752638545025093e-01  5.2271590553740456e-02  -2.7155628048017626e-02  3.3325095463698502e-02  1.0086584193825567e-01  4.1083839042257583e-02  -8.8593385983130168e-03  5.9559312798417564e-02  1.1976989626721153e-01  1.0568640620767605e-01  7.9176217641864693e-02  1.2815188617338732e-01  -1.5522591443245314e-02  5.8238579241846271e-02  7.1293199516700399e-03  8.5511303678013684e-02  6.1675277357031162e-02  2.1436448473844464e-02  1.3809892757000369e-01  -