<?xml version="1.0"?>
<VTKFile type="UnstructuredGrid"  version="0.1"  >
<UnstructuredGrid>
<Piece  NumberOfPoints="4820" NumberOfCells="9262">
<Points>
<DataArray  type="Float64"  NumberOfComponents="3"  format="ascii">0.004357787137382907 0.04980973490458728 0  3.061616997868383e-18 0.05 0  -0.004357787137382901 0.04980973490458728 0  -0.004357787137382912 -0.04980973490458728 0  -9.184850993605149e-18 -0.05 0  0.004357787137382894 -0.04980973490458728 0  -0.2 -0.2 0  0.55 -0.2 0  2 -0.2 0  2 0.21 0  0.55 0.21 0  -0.2 0.21 0  0.002180969358710071 0.04995241107951016 0  -0.002180969376377175 0.04995241107873878 0  -0.00218096936205605 -0.04995241107936408 0  0.002180969376762267 -0.04995241107872198 0  -0.00681459716460041 0.04953343583362881 0  -0.009254746165878699 0.04913603233275104 0  -0.01167226821331763 0.04861849601495686 0  -0.01406125270101674 0.04798209220613614 0  -0.01641585879600313 0.04722837685110179 0  -0.01873032971283131 0.04635919271135586 0  -0.02099900679895535 0.04537666485604058 0  -0.02321634335656028 0.04428319547131056 0  -0.02537691821523419 0.04308145798249308 0  -0.02747544897576464 0.04177439052314415 0  -0.0295068049360126 0.04036518874560236 0  -0.03146601963036187 0.03885729800979068 0  -0.03334830296690066 0.03725440496408185 0  -0.03514905295182857 0.03556042852089316 0  -0.03686386691867947 0.03377951029547187 0  -0.03848855232085789 0.03191600445301051 0  -0.04001913696023074 0.02997446708380811 0  -0.04145187870654155 0.02795964505672717 0  -0.04278327464009846 0.02587646442367869 0  -0.04401006963121561 0.02373001835346012 0  -0.04512926428658137 0.02152555469556806 0  -0.04613812228218922 0.0192684631528764 0  -0.04703417705848439 0.01696426209509693 0  -0.04781523785065199 0.0146185850644164 0  -0.04847939503850856 0.01223716702101564 0  -0.04902502482533359 0.009825830289366174 0  -0.04945079319725205 0.00739047036139188 0  -0.04975565919278197 0.004937041451287537 0  -0.04993887744399172 0.002471541954727039 0  -0.05000000000000002 -2.179027782864273e-10 0  -0.04993887742290181 -0.002471542380860383 0  -0.04975565915220143 -0.004937041860259632 0  -0.04945079313853181 -0.007390470754298181 0  -0.04902502474990915 -0.009825830665689136 0  -0.04847939494791073 -0.01223716737993267 0  -0.04781523774597484 -0.01461858540679994 0  -0.04703417694176702 -0.01696426241870103 0  -0.04613812215449838 -0.01926846345863071 0  -0.04512926414810409 -0.02152555498589172 0  -0.04401006948618459 -0.02373001862243695 0  -0.04278327448542859 -0.02587646467940464 0  -0.04145187854660255 -0.0279596452938465 0  -0.04001913680095092 -0.02997446729646378 0  -0.03848855215910903 -0.03191600464806871 0  -0.03686386675419343 -0.0337795104749769 0  -0.03514905278746659 -0.03556042868335375 0  -0.0333483028093871 -0.0372544051050802 0  -0.03146601947545011 -0.03885729813523576 0  -0.02950680478964417 -0.04036518885259716 0  -0.02747544883924331 -0.04177439061293563 0  -0.0253769180845661 -0.04308145805946247 0  -0.02321634324304243 -0.04428319553082456 0  -0.02099900669895044 -0.04537666490231995 0  -0.01873032963061061 -0.04635919274457518 0  -0.01641585872377311 -0.04722837687620784 0  -0.01406125264610136 -0.04798209222222922 0  -0.01167226817214395 -0.04861849602484179 0  -0.009254746140787012 -0.04913603233747704 0  -0.006814597153124481 -0.04953343583520761 0  0.006814597163087254 -0.04953343583383697 0  0.009254746162416328 -0.04913603233340317 0  0.01167226820749043 -0.04861849601635584 0  0.01406125269526824 -0.04798209220782076 0  0.01641585878869484 -0.04722837685364205 0  0.01873032970478165 -0.04635919271460813 0  0.02099900678940205 -0.04537666486046157 0  0.02321634334324823 -0.04428319547828967 0  0.02537691819928517 -0.04308145799188777 0  0.02747544895679411 -0.04177439053562125 0  0.02950680491571239 -0.04036518876044175 0  0.03146601960788315 -0.03885729802799359 0  0.03334830294823126 -0.03725440498079377 0  0.03514905293079007 -0.03556042854168828 0  0.03686386690162479 -0.03377951031408381 0  0.03848855230703181 -0.03191600446968382 0  0.04001913694627814 -0.02997446710243633 0  0.04145187869083342 -0.02795964508001545 0  0.04278327462632659 -0.02587646444644864 0  0.04401006962056583 -0.02373001837321138 0  0.04512926427712953 -0.02152555471538427 0  0.04613812227399118 -0.01926846317250652 0  0.04703417705106056 -0.01696426211567986 0  0.04781523784312168 -0.01461858508904696 0  0.04847939503319636 -0.01223716704206073 0  0.04902502482144694 -0.009825830308758294 0  0.04945079319422288 -0.007390470381660498 0  0.0497556591909245 -0.004937041470007301 0  0.04993887744294273 -0.002471541975922472 0  0.05000000000000002 1.960026680888904e-10 0  0.04993887742406512 0.002471542357355427 0  0.0497556591543939 0.004937041838163785 0  0.04945079314184119 0.007390470732154637 0  0.04902502475403982 0.009825830645079567 0  0.04847939495309415 0.01223716735939779 0  0.04781523775084436 0.01461858539087247 0  0.04703417694693356 0.01696426240437658 0  0.04613812215952091 0.01926846344660432 0  0.04512926415455419 0.02152555497236883 0  0.04401006949386337 0.02373001860819578 0  0.04278327450092428 0.0258764646537846 0  0.04145187856220046 0.02795964527072164 0  0.04001913681616228 0.02997446727615497 0  0.03848855217730672 0.03191600462612355 0  0.03686386677147228 0.03377951045612033 0  0.03514905280168957 0.03556042866929533 0  0.0333483028196165 0.03725440509592335 0  0.03146601948352148 0.03885729812869969 0  0.02950680480117144 0.04036518884417076 0  0.02747544884918156 0.04177439060639914 0  0.02537691809390653 0.04308145805396053 0  0.02321634324922249 0.04428319552758454 0  0.02099900670813883 0.04537666489806784 0  0.01873032963827596 0.04635919274147818 0  0.01641585873206496 0.04722837687332573 0  0.01406125264532184 0.04798209222245766 0  0.01167226817007835 0.04861849602533769 0  0.009254746139683721 0.04913603233768484 0  0.006814597151967234 0.04953343583536681 0  -0.1875196675247935 -0.2 0  -0.1748316574073939 -0.2 0  -0.1619325191073485 -0.2 0  -0.1488187266915765 -0.2 0  -0.1354867190390691 -0.2 0  -0.1219328601465505 -0.2 0  -0.1081534589822707 -0.2 0  -0.09414476550972861 -0.2 0  -0.07990295838040007 -0.2 0  -0.06542416251428446 -0.2 0  -0.05070442829752772 -0.2 0  -0.03573975778997357 -0.2 0  -0.02052606446908414 -0.2 0  -0.005059208186730002 -0.2 0  0.0106650220181323 -0.2 0  0.02665090828184707 -0.2 0  0.04290281009001662 -0.2 0  0.05942514756265038 -0.2 0  0.07622242703544463 -0.2 0  0.09329921759985482 -0.2 0  0.110660176225582 -0.2 0  0.1283100240439488 -0.2 0  0.146253576648871 -0.2 0  0.1644957213272042 -0.2 0  0.1830414174264912 -0.2 0  0.2018957247245375 -0.2 0  0.2210637776854531 -0.2 0  0.2405507899571802 -0.2 0  0.2603620802338072 -0.2 0  0.2805030369240936 -0.2 0  0.3009791461642926 -0.2 0  0.3217959913512258 -0.2 0  0.3429592352388189 -0.2 0  0.3644746444814039 -0.2 0  0.3863480802046066 -0.2 0  0.4085854997083186 -0.2 0  0.4311929582382759 -0.2 0  0.4541766169094176 -0.2 0  0.4775427325114808 -0.2 0  0.5012976686781503 -0.2 0  0.5254479007761028 -0.2 0  0.5750000000714078 -0.2 0  0.6000000001173931 -0.2 0  0.6250000002059986 -0.2 0  0.6500000002385247 -0.2 0  0.675000000336103 -0.2 0  0.7000000003686291 -0.2 0  0.7250000004542437 -0.2 0  0.7500000005062106 -0.2 0  0.7750000005716368 -0.2 0  0.8000000006490264 -0.2 0  0.8250000006890297 -0.2 0  0.8500000007910944 -0.2 0  0.8750000008565204 -0.2 0  0.9000000009518555 -0.2 0  0.9250000010408349 -0.2 0  0.9500000011343006 -0.2 0  0.9750000012251494 -0.2 0  1.000000001296183 -0.2 0  1.0250000013646 -0.2 0  1.050000001466665 -0.2 0  1.075000001557888 -0.2 0  1.100000001673038 -0.2 0  1.125000001762017 -0.2 0  1.150000001851744 -0.2 0  1.175000001947827 -0.2 0  1.200000002046153 -0.2 0  1.225000002155695 -0.2 0  1.25000000221813 -0.2 0  1.275000002244301 -0.2 0  1.300000002154947 -0.2 0  1.325000002108962 -0.2 0  1.350000002019609 -0.2 0  1.375000001973624 -0.2 0  1.400000001884271 -0.2 0  1.42500000182707 -0.2 0  1.450000001748932 -0.2 0  1.475000001659579 -0.2 0  1.500000001570226 -0.2 0  1.525000001480872 -0.2 0  1.550000001391519 -0.2 0  1.575000001345534 -0.2 0  1.60000000125618 -0.2 0  1.625000001210195 -0.2 0  1.650000001120842 -0.2 0  1.675000001066632 -0.2 0  1.700000000985504 -0.2 0  1.725000000905871 -0.2 0  1.750000000850165 -0.2 0  1.775000000760812 -0.2 0  1.800000000714827 -0.2 0  1.825000000625473 -0.2 0  1.85000000053612 -0.2 0  1.875000000446767 -0.2 0  1.900000000357413 -0.2 0  1.92500000026806 -0.2 0  1.950000000178707 -0.2 0  1.975000000089353 -0.2 0  2 -0.1758823529236379 0  2 -0.1517647057870068 0  2 -0.1276470586430415 0  2 -0.103529411528254 0  2 -0.07941176439513059 0  2 -0.05529411724717925 0  2 -0.03117647008918309 0  2 -0.007058822960843009 0  2 0.01705882406928105 0  2 0.0411764710640091 0  2 0.06529411804247409 0  2 0.08941176503720205 0  2 0.11352941203193 0  2 0.137647059026658 0  2 0.1617647060111818 0  2 0.185882353005272 0  1.974999999927471 0.21 0  1.949999999833257 0.21 0  1.924999999782412 0.21 0  1.899999999688198 0.21 0  1.874999999637353 0.21 0  1.849999999543139 0.21 0  1.824999999448926 0.21 0  1.799999999354712 0.21 0  1.774999999260499 0.21 0  1.749999999166286 0.21 0  1.724999999082914 0.21 0  1.699999998977859 0.21 0  1.674999998902712 0.21 0  1.649999998789432 0.21 0  1.624999998688863 0.21 0  1.599999998581938 0.21 0  1.574999998495201 0.21 0  1.549999998413699 0.21 0  1.524999998318364 0.21 0  1.499999998273501 0.21 0  1.474999998238357 0.21 0  1.449999998189755 0.21 0  1.424999998038714 0.21 0  1.399999997975905 0.21 0  1.37499999792992 0.21 0  1.349999997902628 0.21 0  1.324999997821126 0.21 0  1.299999997699994 0.21 0  1.274999997636438 0.21 0  1.249999997681301 0.21 0  1.224999997765794 0.21 0  1.199999997857764 0.21 0  1.174999997916835 0.21 0  1.149999998014039 0.21 0  1.124999998067875 0.21 0  1.09999999816508 0.21 0  1.074999998218916 0.21 0  1.049999998316121 0.21 0  1.02499999838865 0.21 0  0.999999998467161 0.21 0  0.9749999985209969 0.21 0 
[...]
<PointData  Scalars="pressure"> 
<DataArray  type="Float64"  Name="pressure"  format="ascii">-8.4377453478680153e-01  -7.3512787660617440e-01  -8.4347424863199083e-01  -1.0251858866957768e+00  -1.0274354844792020e+00  -7.7726340724058063e-01  4.1069198335380075e-01  -9.1077209589385935e-02  0.0000000000000000e+00  0.0000000000000000e+00  4.5983141692104088e-02  4.0570080253934637e-01  -7.7404560563349512e-01  -7.4124405323793685e-01  -1.0825563146627637e+00  -9.1976687422365355e-01  -8.5513605909244983e-01  -8.7630053397401353e-01  -8.8543082951467389e-01  -8.8185723840611541e-01  -8.6440704527542700e-01  -8.2960599663418810e-01  -7.8015383819151662e-01  -7.1644496210181274e-01  -6.3423053726432799e-01  -5.3436973746722027e-01  -4.1979294573119513e-01  -2.9484739901738444e-01  -1.5740549228951592e-01  -3.7898851841256663e-03  1.5323038340974030e-01  3.2095518628812475e-01  4.9000809910845361e-01  6.5759936158112309e-01  8.3051267326925549e-01  9.9160927257156939e-01  1.1527696540650230e+00  1.3024444097300838e+00  1.4380584516866453e+00  1.5632682152213933e+00  1.6699256496637900e+00  1.7587260364611210e+00  1.8293851125953413e+00  1.8809554623410762e+00  1.9070935825223938e+00  1.9134507933550124e+00  1.8980350722253050e+00  1.8596417533700902e+00  1.8010049995755573e+00  1.7208715951025637e+00  1.6232288066089684e+00  1.5095696555092244e+00  1.3772251642622673e+00  1.2352021570457736e+00  1.0792385702775318e+00  9.1407872063721762e-01  7.4439358101028963e-01  5.6956602759024233e-01  3.9725711439815342e-01  2.2544069410323161e-01  5.2001825605205262e-02  -1.0242891334713382e-01  -2.6361146527243523e-01  -4.0253311561300781e-01  -5.3591858871628018e-01  -6.5063140242814077e-01  -7.5777549114851461e-01  -8.4428478094545467e-01  -9.1859438606993782e-01  -9.7758919474123041e-01  -1.0181310653038849e+00  -1.0480080875509259e+00  -1.0612759354254500e+00  -1.0676715922145785e+00  -1.0586478068423477e+00  -7.6961389594800400e-01  -7.3415415836543485e-01  -6.9820440815780471e-01  -6.6364013919361720e-01  -6.3116056512639995e-01  -6.0246144304078442e-01  -5.7642538219776451e-01  -5.5393114139687971e-01  -5.3419041074104268e-01  -5.1718001534150482e-01  -5.0284367977112798e-01  -4.9029242245977422e-01  -4.8015405542677847e-01  -4.7175491051077140e-01  -4.6445264165670924e-01  -4.5851861692325929e-01  -4.5329599353971534e-01  -4.4872349947599904e-01  -4.4436349191174490e-01  -4.4020869011869251e-01  -4.3627005060332985e-01  -4.3225852321492692e-01  -4.2830698433161413e-01  -4.2459903704234975e-01  -4.2102606827636663e-01  -4.1791268794974884e-01  -4.1540269102090216e-01  -4.1332865013009595e-01  -4.1222341351203895e-01  -4.1194116919381013e-01  -4.1241758690838393e-01  -4.1376960029173138e-01  -4.1581482813338105e-01  -4.1847953924018261e-01  -4.2172671440778381e-01  -4.2532671792536492e-01  -4.2910523528073591e-01  -4.3303630656430930e-01  -4.3691306727776863e-01  -4.4090520861107457e-01  -4.4476611454017012e-01  -4.4885570119515317e-01  -4.5317262622040760e-01  -4.5772079543743355e-01  -4.6338345570931067e-01  -4.6928166320933268e-01  -4.7737755328680059e-01  -4.8674529727404175e-01  -4.9774100124334764e-01  -5.1146303779054225e-01  -5.2735751013700671e-01  -5.4612997750058789e-01  -5.6782412147862160e-01  -5.9279992540346915e-01  -6.2128399451247907e-01  -6.5296556263132699e-01  -6.8804723802080325e-01  -7.2708411340445778e-01  -7.6676125315444177e-01  4.1001562698135008e-01  4.0900181271876695e-01  4.0674572586502455e-01  4.0342726405510909e-01  3.9822041576079553e-01  3.9081112923814038e-01  3.8035214102653458e-01  3.6647719095235565e-01  3.4804007447066565e-01  3.2488667749069594e-01  2.9635976253560159e-01  2.6148549411566957e-01  2.2264024706746890e-01  1.7815490945507451e-01  1.3156535286220036e-01  8.3997173558570060e-02  3.5757724419456405e-02  -8.0418521007083864e-03  -4.9890922346707382e-02  -8.6568807067240378e-02  -1.1724895401755885e-01  -1.4259715578491799e-01  -1.6200974546331992e-01  -1.7459823439291630e-01  -1.8142851668860249e-01  -1.8208065850619343e-01  -1.7885987532925665e-01  -1.7253554500492196e-01  -1.6079874110361306e-01  -1.5025387622888972e-01  -1.3810824425530366e-01  -1.2804903434098902e-01  -1.1993380072509750e-01  -1.1614133949677280e-01  -1.1673717586927568e-01  -1.2108532015223715e-01  -1.3016129454549266e-01  -1.3936617531917966e-01  -1.4275194179924039e-01  -1.3790302693474818e-01  -1.2144179469951566e-01  -5.3373621566465634e-02  -1.2883271865757375e-02  2.5924095275381621e-02  5.6186488113166455e-02  7.6916824780434878e-02  8.6298455147752251e-02  8.3229896741371628e-02  7.1488131266490840e-02  5.1402782186665497e-02  2.8256843271510824e-02  5.6224406352567502e-03  -1.3903821033523533e-02  -2.4341465294912618e-02  -2.6047067723789133e-02  -1.9048872817850553e-02  -5.9379479280862362e-03  8.7465172936936151e-03  2.0550476013741457e-02  2.7817488880855414e-02  2.8034018508011738e-02  2.3086962920696747e-02  1.4483237081607170e-02  6.4004100274370843e-03  -2.2710008481744033e-04  -3.6979556515128044e-03  -4.0472742270539104e-03  -1.9655310480970198e-03  1.0348055769492175e-03  4.3139529577081795e-03  6.5898870169028984e-03  7.8691659477442989e-03  7.5212142802632432e-03  6.4184528340534789e-03  4.6385921765274684e-03  2.7951518732732853e-03  1.2270062498892038e-03  -6.4022802778485131e-05  -9.7183315002787648e-04  -1.4236298908098576e-03  -1.3068058205842016e-03  -2.2197573583700435e-04  1.8119097038151383e-03  4.5281474769156274e-03  8.0172532039631799e-03  1.1687516363788699e-02  1.5376409920981207e-02  1.8408261929560868e-02  2.0616034514117615e-02  2.2366902565700668e-02  2.3191232214615682e-02  2.3015272766831102e-02  2.2066479231210228e-02  2.0080368092069745e-02  1.7357631238963840e-02  1.3819434112529509e-02  9.6019838179691556e-03  4.9264765899511200e-03  0.0000000000000000e+00  0.0000000000000000e+00  0.0000000000000000e+00  0.0000000000000000e+00  0.0000000000000000e+00  0.0000000000000000e+00  0.0000000000000000e+00  0.0000000000000000e+00  0.0000000000000000e+00  0.0000000000000000e+00  0.0000000000000000e+00  0.0000000000000000e+00  0.0000000000000000e+00  0.0000000000000000e+00  0.0000000000000000e+00  0.0000000000000000e+00  4.6063295584074220e-03  8.4579131499457720e-03  1.1504458364869134e-02  1.3754879293235499e-02  1.5141804571001982e-02  1.5928768572718695e-02  1.5966658721833265e-02  1.5629160135509544e-02  1.4821840595253925e-02  1.3736552652974750e-02  1.2789401744778920e-02  1.1875563801764910e-02  1.0909177199073243e-02  1.0014265508548349e-02  9.0031612038854372e-03  7.3123879978013537e-03  4.9716234578586664e-03  1.8089706218584393e-03  -2.2369872455192722e-03  -6.4453816948856404e-03  -1.0494054532704376e-02  -1.3754042520393119e-02  -1.5066211615271378e-02  -1.4189995106277985e-02  -1.0664049477383473e-02  -5.4385272326728674e-03  2.2409126194538459e-04  4.8851019860831034e-03  6.6887077131033718e-03  5.0901602702394860e-03  1.2494209486367609e-03  -4.1342055069440286e-03  -8.7379452864964728e-03  -1.1180153539761730e-02  -1.0331981390711792e-02  -5.5125575078278912e-03  1.8177457519723190e-03  1.1102702287141383e-02  2.0914835216831924e-02  3.0591317391331297e-02  3.9538018143754614e-02  4.7592471702524078e-02  5.4985111887565108e-02  5.9458629066564794e-02  6.0159096156881711e-02  5.4751426038283167e-02  4.1632617577110564e-02  2.1926659096298474e-02  -3.1822499538984670e-03  -3.0335993555967722e-02  -5.2936600238066261e-02  -6.8513099271886119e-02  -7.0050487032928488e-02  -5.7660199787884406e-02  -3.4373045053743549e-02  -3.0261366336431362e-03  2.5493810876854279e-02  5.5575951882623618e-02  4.9053719409740223e-02  3.0888113756661815e-02  5.4857633874079480e-03  -2.6830849637128857e-02  -6.0599707734927011e-02  -9.3423695018224839e-02  -1.2279439771162722e-01  -1.4921707974489651e-01  -1.7134926005419138e-01  -1.8836238616963072e-01  -2.0072059161595923e-01  -2.0900603162459869e-01  -2.1267042061479080e-01  -2.1325587184540126e-01  -2.0673502536885638e-01  -1.9749738856577131e-01  -1.8018553164885937e-01  -1.6046698018548722e-01  -1.3334119658892238e-01  -1.0115223904348866e-01  -6.5927280961084495e-02  -2.3959113472884815e-02  1.9517881860827868e-02  6.5498067801618515e-02  1.1236201325361239e-01  1.5817963692307882e-01  2.0162691199010724e-01  2.4203019667214382e-01  2.7756783035478516e-01  3.0747408015020466e-01  3.3305036067809468e-01  3.5305077305745231e-01  3.6842931762246806e-01  3.8048255208710507e-01  3.8904538914424702e-01  3.9528983398771600e-01  3.9956438255918664e-01  4.0237078567634638e-01  4.0406913506838432e-01  4.0503972975738506e-01  4.0553936563895360e-01  4.0643329159127267e-01  4.0983725511605601e-01  4.1693167458201641e-01  4.2859070161122836e-01  4.4563458058128241e-01  4.6816961237473509e-01  4.9604408259853977e-01  5.2869370737336630e-01  5.6520487161388600e-01  6.0343707684156012e-01  6.4184392216734876e-01  6.7752054744632895e-01  7.0758249456814692e-01  7.3071884022067990e-01  7.4384574792017943e-01  7.4638806635184807e-01  7.3755209792496157e-01  7.1851348556454109e-01  6.9051712154019296e-01  6.5695818387727756e-01  6.1921849263035622e-01  5.8037958185134553e-01  5.4275754670659881e-01  5.0858458865267286e-01  4.7886708180435839e-01  4.5468458121750505e-01  4.3624999196544073e-01  4.2332681320111076e-01  4.1568674637198549e-01  4.1156345806923872e-01  4.1058662449853750e-01  -9.5165415310494772e-02  -1.0043315459525094e-01  -9.3532662280306267e-02  -6.4627924508943196e-02  -1.7909427367852993e-02  3.4681797490686811e-02  6.7906198225397257e-02  5.3680727918098817e-02  3.1929860564221382e-02  1.6688466740234342e-02  1.7064116751065575e-02  4.2098725264544619e-02  6.3245335316099993e-02  6.7948054727056714e-02  6.2028018776128603e-02  5.0900705066593270e-02  5.2267635907156169e-02  1.4904778227836790e-02  -7.6056281213761718e-03  3.1639367293103057e-02  3.9312518163476477e-03  -2.1915546851252216e-02  -3.2367091306065225e-03  -9.1394848515424787e-03  9.2592806729944500e-03  3.8978690178533490e-02  -2.9651590035602329e-02  8.3140860151738900e-03  9.1732178122414815e-03  2.4801322353312810e-02  1.9765469836203017e-02  1.0830282592413743e-02  1.9970114810658111e-02  -6.8446017390291256e-02  6.9107835442985571e-02  1.4595438346500091e-02  4.4373787929321146e-03  -8.1221420529696802e-04  -1.3545231254787484e-02  6.7996377454693042e-03  -1.3729867678380855e-02  5.1240227105715186e-02  -8.0132749344883070e-03  -2.8188028933850782e-02  -2.0448116324063993e-02  2.1770804075555896e-02  1.4418633945452708e-02  7.8536666607239028e-02  -6.4356754237083522e-02  1.2132324343157266e-02  -2.1829057496832782e-02  8.9163045419703938e-03  -1.1376354308823052e-02  3.0097862081246486e-03  -1.1664117289779927e-02  4.4801193453184660e-03  9.4002174300385037e-03  2.2098867059056803e-04  9.8258545642258624e-03  9.1090332042820712e-03  3.9580673467336274e-04  -5.3100020726467318e-03  -4.0675993018382553e-02  1.4609712426482813e-02  2.9077284298472231e-02  1.1964851817964917e-02  -4.7553654545093249e-02  -1.2166668689671221e-03  -1.8091935881871711e-02  6.3514448904850182e-02  3.8775681800511178e-02  1.0325136430922603e-03  -9.6311864733949828e-03  2.7192281227423322e-02  -2.9383218829726649e-03  1.4413003370318403e-02  4.7514853335639705e-03  6.7022345926220517e-03  4.6513407726804283e-02  1.7076644007268264e-02  1.6618759020825232e-03  1.1458044529386847e-02  8.8039700474760695e-03  9.2383941995693823e-03  -5.8073120947111758e-03  5.2424373529613285e-03  -2.5352166278108657e-02  -8.3838226181276159e-03  -1.6583875448381044e-03  -8.5571570176189188e-02  2.3297514867438342e-02  1.0202812935864429e-01  1.6000439272670038e-02  1.1570475127525457e-02  3.0405764743968448e-02  3.2533925477887977e-02  2.6143966850067588e-05  -2.5176289506139184e-02  1.1394222652986064e-02  5.9972863169492220e-02  -5.4705415778208304e-02  8.5597176173261829e-03  4.3086742015313449e-02  1.6730700023354052e-02  3.4837251630391738e-02  3.6345859779837120e-02  1.4898170931584524e-03  -9.4834989033774630e-03  1.5328582565804241e-02  -6.1890781056725399e-03  -1.0129108191633434e-02  2.0318132707778927e-03  1.7938722724183367e-02  4.5737064445834141e-02  8.3509289702769399e-02  -1.6275268666818884e-02  -7.4825214766107242e-04  6.9903509115096336e-03  8.0204397341496619e-03  -8.7793935752561187e-03  4.7759654640991252e-02  -1.7364008466108662e-02  1.4339513543266636e-02  1.4743189825711173e-02  -1.4662798614799947e-02  5.0807500356340470e-02  4.7151785127394444e-02  -3.8138167839170908e-03  -1.3281192188147620e-02  -5.7281114374122509e-04  2.2172274350512108e-02  1.4074926953989784e-02  5.3678900864601267e-02  -3.8206362827439513e-02  6.9132333729066704e-03  -3.0253072672855631e-02  4.1083381917512403e-03  -1.7121891071639087e-02  -7.8399075321099798e-02  1.9463311507448944e-02  1.4762246983604056e-02  7.3911692746908203e-02  1.0559993624151052e-02  3.6203515948722994e-03  7.8664673019667956e-03  2.4327256840575809e-02  2.2190350553710159e-02  -6.4224369551548555e-03  1.1287620047236491e-02  1.0394250673008084e-02  -6.5684408145143314e-02  7.2707783480239242e-03  -4.9066010338248683e-03  2.0840625808928499e-02  3.1963415982349634e-02  7.4483287589416436e-03  9.1916750598791345e-03  7.7701760865147426e-03  -5.8148692413640443e-04  7.6718374590388719e-03  1.1409623775855131e-02  5.3967623557214326e-03  3.1149023436332447e-02  1.8021134677648355e-03  9.1774775163570785e-02  2.6997717176641518e-02  1.5396834629398646e-02  -9.9726210752501326e-04  2.6581848530414743e-03  4.4452601652642696e-03  -2.1572085202765118e-03  -2.9380501032331110e-02  -3.3301377788574472e-03  6.3299281898347853e-02  -3.7306919996490332e-04  -1.2026674345748717e-02  3.5824334610113300e-02  -5.4854241358244536e-02  1.6096953677727704e-02  -3.0610529738716720e-03  -1.6440877398529934e-02  -1.5303384182706093e-02  -7.7222192752454608e-02  1.5758690397485071e-02  3.6613960112416716e-02  3.6880867511290770e-03  9.4704493972113807e-03  -6.3434337416709364e-03  1.0315808990720071e-02  -2.4289105561660501e-02  1.0565359539731275e-02  5.7175353246035751e-03  4.4384456220884485e-03  4.9717188019844458e-03  -1.2941877634202825e-02  -2.4704513890679981e-03  1.4912639394645377e-02  8.2967034204218890e-03  -3.2851347246015898e-02  7.4366075357352223e-03  1.2239475493964426e-03  8.5488501621600668e-03  1.1479857037902655e-02  1.3536566708315571e-02  -1.1106084377113074e-02  4.0284580203910946e-03  -3.7329309663916371e-02  3.3763160658880832e-02  1.5590542463269064e-02  -2.1456700277314937e-02  -9.8020307571486300e-03  5.2846525789407295e-03  3.9604883143003727e-02  3.6465432453126702e-02  1.0496706960173246e-02  3.5855934262165184e-02  -6.6663082055431761e-04  -1.2535482592859991e-02  2.3499287728061619e-02  8.7551848996638384e-02  -5.0930610030296343e-02  1.5615867060477694e-02  9.4740833747617905e-03  2.9958971176017236e-02  4.5174480339246264e-03  6.5726023405365680e-03  1.4239504089729415e-02  2.3617409066176618e-03  -4.2567084484792801e-02  9.6598033779479661e-03  5.9672600285619590e-02  1.1424489796240693e-02  -1.4487678494069459e-02  9.0083653431958371e-03  -5.3932921285177023e-02  1.6462297090244420e-02  1.2232162498810458e-02  5.1232429109946749e-02  1.0397314317509728e-03  -3.1189690221909106e-03  5.4051872433967989e-03  1.5200731865353615e-02  7.4379413358024939e-04  -2.1467845499162420e-03  1.4044905511017537e-02  1.2794011217518230e-02  3.7690231045020514e-03  8.9994211753148048e-03  8.5157527660537358e-03  4.2696264835494005e-03  1.3972422082706227e-03  2.1257000878477404e-02  8.6209442758688914e-02  -9.3248754892312838e-02  1.5287628076788790e-02  6.0382903742185280e-02  -3.0154239819804779e-02  -5.8351705238008471e-02  1.1819929480661065e-02  1.2490140389313736e-03  3.1218912287027298e-03  3.7715389047544264e-03  1.9141337128912195e-02  -1.9210351234519067e-03  9.1061427953236778e-03  5.4746328097851731e-02  -4.8249632949076649e-03  4.5634466963146384e-03  2.2911395338472466e-02  1.7525603820456065e-03  1.2731705046075376e-02  3.4418509013363068e-02  1.5900460343529453e-02  1.9304526790609622e-02  1.9669604529236819e-03  -1.8979219149235154e-02  -1.5001679780097580e-03  -4.2637682998959710e-02  1.5077112412398529e-02  3.2988126101589792e-02  1.2283381468492673e-02  1.8505475042141898e-02  7.8868257152220171e-03  3.9260894579776946e-02  -1.6671609982411434e-03  7.0384040656999561e-02  -4.3208716448974144e-02  4.1334668889696689e-02  -1.5716956601168446e-02  1.9363985474216455e-02  -5.0131197960602940e-03  3.7438516435363750e-02  -8.8752207569486787e-03  3.8727355107380103e-02  1.3934801747481762e-02  -1.5655287482638232e-02  3.1607953697402329e-03  -1.2180953870570291e-02  1.4680288401806785e-02  3.1708695254126208e-02  3.1095142117852251e-02  5.5048201400388231e-03  -6.3014121933295227e-03  7.3938230913993411e-03  -4.0246892369156628e-02  2.5443198951279850e-02  6.2808961163102377e-03  1.5637490105925477e-02  1.3864298855712167e-02  2.1938577738016850e-02  5.7289066812914125e-02  6.0427820022415021e-03  5.1109015752794718e-03  -7.8685404298311362e-02  2.2301203489430176e-02  9.1885283353425232e-02  1.5837472342843311e-02  -5.1660885419259360e-02  6.0554682519051118e-03  -3.5571435611989658e-03  -2.1567756225182932e-02  5.4519707877346717e-02  2.1704365592557635e-02  3.8348533978255918e-02  -5.2907382322506358e-02  2.3611376130303705e-02  1.5487752647918221e-02  9.2744091210227836e-02  1.6786915485291817e-02  1.2900387273984492e-02  -3.8929772583970450e-02  2.6252220657767764e-02  -3.3608199874104079e-03  -2.0189851841703663e-02  -1.0555068701287716e-02  2.7365469921735112e-03  5.2748546884869608e-02  1.2841552224487775e-02  3.1868963969558143e-04  6.5452856272304211e-02  4.2662493203953114e-02  5.0985379053076268e-03  -3.3594004787838269e-04  -5.7521417814026332e-03  2.0722609448982337e-02  -3.2404043154977470e-03  -9.8652105504440563e-04  1.8226489532029093e-02  -3.4429242949678622e-03  -3.7551761108411810e-02  1.5160105306423598e-02  9.5987489966022788e-03  -3.8869773108687937e-02  3.5617601840547634e-03  7.5587866921144097e-03  -3.1122477703987496e-02  8.8585759854746954e-03  -3.5349136741617743e-02  3.5389089046297381e-02  9.1396482391201180e-03  -2.7817139922699376e-02  -3.3450953577973314e-03  -1.2224871790175127e-02  8.3857904650052051e-03  -2.0707384272424948e-03  6.1687678478587436e-03  1.1160924789491228e-02  -3.7047056435754841e-03  -5.4143954069457746e-02  1.2229261604302440e-02  -1.3174839927662435e-02  1.9445237412347193e-03  3.1600731243368999e-02  7.2346988766920951e-03  5.0527427269092687e-03  -6.7436965394007274e-04  1.9503013406947916e-02  6.5427127941299103e-03  9.7805473802313626e-03  2.5497516582561625e-03  1.5320223834137706e-02  1.5630648824885864e-03  1.5607113303779313e-02  5.3523024427754057e-02  5.3155507281699627e-02  1.5622609007296973e-02  1.1631601877073917e-02  9.0727872572094661e-03  -1.3420040636940129e-02  -5.8814584449450131e-03  3.3532618514285926e-04  5.0394052212343818e-02  4.8093982538687068e-03  9.0906769817317400e-03  -3.9424594522798437e-02  8.2240890647908415e-03  9.9725459270040250e-03  -1.5806088693176127e-02  4.9959344936897744e-03  -2.8918098978716975e-02  -9.6754907046659056e-03  1.9979602151228779e-02  1.5232235740544459e-02  6.5765184287269237e-03  8.6609315393768663e-02  -9.7570156151636058e-04  1.1126799532755992e-03  4.4560856860280849e-02  2.1218579896435014e-02  -3.0638574567552731e-03  1.0964980263950373e-02  -1.2447225315152273e-02  2.6095231339789512e-02  -1.1786181271982454e-02  5.3584763945101798e-03  -3.7901591845774349e-03  3.2407029498689320e-03  7.8617316130241751e-03  5.8023739500037731e-03  -2.4865640812510585e-03  8.7598871119709595e-03  4.4797931621076870e-02  -7.3349473543831895e-02  1.3817161586027259e-02  1.7967015347357985e-02  6.0714756993137282e-02  -2.9325515272878938e-02  -1.6389929516341132e-03  3.1251625081247847e-02  8.6748153566154843e-03  -6.0332402297797218e-03  4.0888274769845377e-02  6.1502436278731899e-02  6.6389884056226769e-02  1.4989615396451425e-02  2.2906593440623124e-02  -2.0560995274361563e-02  1.0919237634665430e-02  4.9