<?xml version="1.0"?>
<VTKFile type="UnstructuredGrid"  version="0.1"  >
<UnstructuredGrid>
<Piece  NumberOfPoints="4820" NumberOfCells="9262">
<Points>
<DataArray  type="Float64"  NumberOfComponents="3"  format="ascii">0.004357787137382907 0.04980973490458728 0  3.061616997868383e-18 0.05 0  -0.004357787137382901 0.04980973490458728 0  -0.004357787137382912 -0.04980973490458728 0  -9.184850993605149e-18 -0.05 0  0.004357787137382894 -0.04980973490458728 0  -0.2 -0.2 0  0.55 -0.2 0  2 -0.2 0  2 0.21 0  0.55 0.21 0  -0.2 0.21 0  0.002180969358710071 0.04995241107951016 0  -0.002180969376377175 0.04995241107873878 0  -0.00218096936205605 -0.04995241107936408 0  0.002180969376762267 -0.04995241107872198 0  -0.00681459716460041 0.04953343583362881 0  -0.009254746165878699 0.04913603233275104 0  -0.01167226821331763 0.04861849601495686 0  -0.01406125270101674 0.04798209220613614 0  -0.01641585879600313 0.04722837685110179 0  -0.01873032971283131 0.04635919271135586 0  -0.02099900679895535 0.04537666485604058 0  -0.02321634335656028 0.04428319547131056 0  -0.02537691821523419 0.04308145798249308 0  -0.02747544897576464 0.04177439052314415 0  -0.0295068049360126 0.04036518874560236 0  -0.03146601963036187 0.03885729800979068 0  -0.03334830296690066 0.03725440496408185 0  -0.03514905295182857 0.03556042852089316 0  -0.03686386691867947 0.03377951029547187 0  -0.03848855232085789 0.03191600445301051 0  -0.04001913696023074 0.02997446708380811 0  -0.04145187870654155 0.02795964505672717 0  -0.04278327464009846 0.02587646442367869 0  -0.04401006963121561 0.02373001835346012 0  -0.04512926428658137 0.02152555469556806 0  -0.04613812228218922 0.0192684631528764 0  -0.04703417705848439 0.01696426209509693 0  -0.04781523785065199 0.0146185850644164 0  -0.04847939503850856 0.01223716702101564 0  -0.04902502482533359 0.009825830289366174 0  -0.04945079319725205 0.00739047036139188 0  -0.04975565919278197 0.004937041451287537 0  -0.04993887744399172 0.002471541954727039 0  -0.05000000000000002 -2.179027782864273e-10 0  -0.04993887742290181 -0.002471542380860383 0  -0.04975565915220143 -0.004937041860259632 0  -0.04945079313853181 -0.007390470754298181 0  -0.04902502474990915 -0.009825830665689136 0  -0.04847939494791073 -0.01223716737993267 0  -0.04781523774597484 -0.01461858540679994 0  -0.04703417694176702 -0.01696426241870103 0  -0.04613812215449838 -0.01926846345863071 0  -0.04512926414810409 -0.02152555498589172 0  -0.04401006948618459 -0.02373001862243695 0  -0.04278327448542859 -0.02587646467940464 0  -0.04145187854660255 -0.0279596452938465 0  -0.04001913680095092 -0.02997446729646378 0  -0.03848855215910903 -0.03191600464806871 0  -0.03686386675419343 -0.0337795104749769 0  -0.03514905278746659 -0.03556042868335375 0  -0.0333483028093871 -0.0372544051050802 0  -0.03146601947545011 -0.03885729813523576 0  -0.02950680478964417 -0.04036518885259716 0  -0.02747544883924331 -0.04177439061293563 0  -0.0253769180845661 -0.04308145805946247 0  -0.02321634324304243 -0.04428319553082456 0  -0.02099900669895044 -0.04537666490231995 0  -0.01873032963061061 -0.04635919274457518 0  -0.01641585872377311 -0.04722837687620784 0  -0.01406125264610136 -0.04798209222222922 0  -0.01167226817214395 -0.04861849602484179 0  -0.009254746140787012 -0.04913603233747704 0  -0.006814597153124481 -0.04953343583520761 0  0.006814597163087254 -0.04953343583383697 0  0.009254746162416328 -0.04913603233340317 0  0.01167226820749043 -0.04861849601635584 0  0.01406125269526824 -0.04798209220782076 0  0.01641585878869484 -0.04722837685364205 0  0.01873032970478165 -0.04635919271460813 0  0.02099900678940205 -0.04537666486046157 0  0.02321634334324823 -0.04428319547828967 0  0.02537691819928517 -0.04308145799188777 0  0.02747544895679411 -0.04177439053562125 0  0.02950680491571239 -0.04036518876044175 0  0.03146601960788315 -0.03885729802799359 0  0.03334830294823126 -0.03725440498079377 0  0.03514905293079007 -0.03556042854168828 0  0.03686386690162479 -0.03377951031408381 0  0.03848855230703181 -0.03191600446968382 0  0.04001913694627814 -0.02997446710243633 0  0.04145187869083342 -0.02795964508001545 0  0.04278327462632659 -0.02587646444644864 0  0.04401006962056583 -0.02373001837321138 0  0.04512926427712953 -0.02152555471538427 0  0.04613812227399118 -0.01926846317250652 0  0.04703417705106056 -0.01696426211567986 0  0.04781523784312168 -0.01461858508904696 0  0.04847939503319636 -0.01223716704206073 0  0.04902502482144694 -0.009825830308758294 0  0.04945079319422288 -0.007390470381660498 0  0.0497556591909245 -0.004937041470007301 0  0.04993887744294273 -0.002471541975922472 0  0.05000000000000002 1.960026680888904e-10 0  0.04993887742406512 0.002471542357355427 0  0.0497556591543939 0.004937041838163785 0  0.04945079314184119 0.007390470732154637 0  0.04902502475403982 0.009825830645079567 0  0.04847939495309415 0.01223716735939779 0  0.04781523775084436 0.01461858539087247 0  0.04703417694693356 0.01696426240437658 0  0.04613812215952091 0.01926846344660432 0  0.04512926415455419 0.02152555497236883 0  0.04401006949386337 0.02373001860819578 0  0.04278327450092428 0.0258764646537846 0  0.04145187856220046 0.02795964527072164 0  0.04001913681616228 0.02997446727615497 0  0.03848855217730672 0.03191600462612355 0  0.03686386677147228 0.03377951045612033 0  0.03514905280168957 0.03556042866929533 0  0.0333483028196165 0.03725440509592335 0  0.03146601948352148 0.03885729812869969 0  0.02950680480117144 0.04036518884417076 0  0.02747544884918156 0.04177439060639914 0  0.02537691809390653 0.04308145805396053 0  0.02321634324922249 0.04428319552758454 0  0.02099900670813883 0.04537666489806784 0  0.01873032963827596 0.04635919274147818 0  0.01641585873206496 0.04722837687332573 0  0.01406125264532184 0.04798209222245766 0  0.01167226817007835 0.04861849602533769 0  0.009254746139683721 0.04913603233768484 0  0.006814597151967234 0.04953343583536681 0  -0.1875196675247935 -0.2 0  -0.1748316574073939 -0.2 0  -0.1619325191073485 -0.2 0  -0.1488187266915765 -0.2 0  -0.1354867190390691 -0.2 0  -0.1219328601465505 -0.2 0  -0.1081534589822707 -0.2 0  -0.09414476550972861 -0.2 0  -0.07990295838040007 -0.2 0  -0.06542416251428446 -0.2 0  -0.05070442829752772 -0.2 0  -0.03573975778997357 -0.2 0  -0.02052606446908414 -0.2 0  -0.005059208186730002 -0.2 0  0.0106650220181323 -0.2 0  0.02665090828184707 -0.2 0  0.04290281009001662 -0.2 0  0.05942514756265038 -0.2 0  0.07622242703544463 -0.2 0  0.09329921759985482 -0.2 0  0.110660176225582 -0.2 0  0.1283100240439488 -0.2 0  0.146253576648871 -0.2 0  0.1644957213272042 -0.2 0  0.1830414174264912 -0.2 0  0.2018957247245375 -0.2 0  0.2210637776854531 -0.2 0  0.2405507899571802 -0.2 0  0.2603620802338072 -0.2 0  0.2805030369240936 -0.2 0  0.3009791461642926 -0.2 0  0.3217959913512258 -0.2 0  0.3429592352388189 -0.2 0  0.3644746444814039 -0.2 0  0.3863480802046066 -0.2 0  0.4085854997083186 -0.2 0  0.4311929582382759 -0.2 0  0.4541766169094176 -0.2 0  0.4775427325114808 -0.2 0  0.5012976686781503 -0.2 0  0.5254479007761028 -0.2 0  0.5750000000714078 -0.2 0  0.6000000001173931 -0.2 0  0.6250000002059986 -0.2 0  0.6500000002385247 -0.2 0  0.675000000336103 -0.2 0  0.7000000003686291 -0.2 0  0.7250000004542437 -0.2 0  0.7500000005062106 -0.2 0  0.7750000005716368 -0.2 0  0.8000000006490264 -0.2 0  0.8250000006890297 -0.2 0  0.8500000007910944 -0.2 0  0.8750000008565204 -0.2 0  0.9000000009518555 -0.2 0  0.9250000010408349 -0.2 0  0.9500000011343006 -0.2 0  0.9750000012251494 -0.2 0  1.000000001296183 -0.2 0  1.0250000013646 -0.2 0  1.050000001466665 -0.2 0  1.075000001557888 -0.2 0  1.100000001673038 -0.2 0  1.125000001762017 -0.2 0  1.150000001851744 -0.2 0  1.175000001947827 -0.2 0  1.200000002046153 -0.2 0  1.225000002155695 -0.2 0  1.25000000221813 -0.2 0  1.275000002244301 -0.2 0  1.300000002154947 -0.2 0  1.325000002108962 -0.2 0  1.350000002019609 -0.2 0  1.375000001973624 -0.2 0  1.400000001884271 -0.2 0  1.42500000182707 -0.2 0  1.450000001748932 -0.2 0  1.475000001659579 -0.2 0  1.500000001570226 -0.2 0  1.525000001480872 -0.2 0  1.550000001391519 -0.2 0  1.575000001345534 -0.2 0  1.60000000125618 -0.2 0  1.625000001210195 -0.2 0  1.650000001120842 -0.2 0  1.675000001066632 -0.2 0  1.700000000985504 -0.2 0  1.725000000905871 -0.2 0  1.750000000850165 -0.2 0  1.775000000760812 -0.2 0  1.800000000714827 -0.2 0  1.825000000625473 -0.2 0  1.85000000053612 -0.2 0  1.875000000446767 -0.2 0  1.900000000357413 -0.2 0  1.92500000026806 -0.2 0  1.950000000178707 -0.2 0  1.975000000089353 -0.2 0  2 -0.1758823529236379 0  2 -0.1517647057870068 0  2 -0.1276470586430415 0  2 -0.103529411528254 0  2 -0.07941176439513059 0  2 -0.05529411724717925 0  2 -0.03117647008918309 0  2 -0.007058822960843009 0  2 0.01705882406928105 0  2 0.0411764710640091 0  2 0.06529411804247409 0  2 0.08941176503720205 0  2 0.11352941203193 0  2 0.137647059026658 0  2 0.1617647060111818 0  2 0.185882353005272 0  1.974999999927471 0.21 0  1.949999999833257 0.21 0  1.924999999782412 0.21 0  1.899999999688198 0.21 0  1.874999999637353 0.21 0  1.849999999543139 0.21 0  1.824999999448926 0.21 0  1.799999999354712 0.21 0  1.774999999260499 0.21 0  1.749999999166286 0.21 0  1.724999999082914 0.21 0  1.699999998977859 0.21 0  1.674999998902712 0.21 0  1.649999998789432 0.21 0  1.624999998688863 0.21 0  1.599999998581938 0.21 0  1.574999998495201 0.21 0  1.549999998413699 0.21 0  1.524999998318364 0.21 0  1.499999998273501 0.21 0  1.474999998238357 0.21 0  1.449999998189755 0.21 0  1.424999998038714 0.21 0  1.399999997975905 0.21 0  1.37499999792992 0.21 0  1.349999997902628 0.21 0  1.324999997821126 0.21 0  1.299999997699994 0.21 0  1.274999997636438 0.21 0  1.249999997681301 0.21 0  1.224999997765794 0.21 0  1.199999997857764 0.21 0  1.174999997916835 0.21 0  1.149999998014039 0.21 0  1.124999998067875 0.21 0  1.09999999816508 0.21 0  1.074999998218916 0.21 0  1.049999998316121 0.21 0  1.02499999838865 0.21 0  0.999999998467161 0.21 0  0.9749999985209969 0.21 0 
[...]
<PointData  Scalars="pressure"> 
<DataArray  type="Float64"  Name="pressure"  format="ascii">-7.8930862273784697e-01  -8.6124577151019110e-01  -9.1216108169962073e-01  -9.0070482064279378e-01  -8.4187172786234510e-01  -7.8024890855235340e-01  4.5873234769918847e-01  1.4399218146084011e-01  0.0000000000000000e+00  0.0000000000000000e+00  -6.4763282153199639e-02  4.2414164731018822e-01  -8.2541924142803036e-01  -8.9131773854199137e-01  -8.7100455707993540e-01  -8.1007370036345827e-01  -9.3537235326847556e-01  -9.4781594429876648e-01  -9.4834740017408825e-01  -9.3708105000020603e-01  -9.1169130647799934e-01  -8.6951836995028098e-01  -8.1305333104472410e-01  -7.4263855339561080e-01  -6.5407551336844483e-01  -5.4820897571473060e-01  -4.2799937439895175e-01  -2.9810420904931029e-01  -1.5596146664663332e-01  1.9921226288282319e-03  1.6277434146173453e-01  3.3401630704257834e-01  5.0606590185986633e-01  6.7635909688931339e-01  8.5164424930960914e-01  1.0147664728764261e+00  1.1777380309090748e+00  1.3289093447803084e+00  1.4658348397697780e+00  1.5921488396445200e+00  1.6997382355941126e+00  1.7893487978664957e+00  1.8606964935751926e+00  1.9128713112546476e+00  1.9395417079310282e+00  1.9464170232020215e+00  1.9314926191264254e+00  1.8936020545255321e+00  1.8355287635247111e+00  1.7559980300199867e+00  1.6590678670986947e+00  1.5462236663678957e+00  1.4148261000942608e+00  1.2739295531118846e+00  1.1192542837122743e+00  9.5561868234438374e-01  7.8770492055923236e-01  6.1489165472761731e-01  4.4489315431927706e-01  2.7565749299318071e-01  1.0525639721171665e-01  -4.6098533940356540e-02  -2.0339518138742893e-01  -3.3832909637551500e-01  -4.6729074124055969e-01  -5.7719113133569466e-01  -6.7905287392901248e-01  -7.5997796589028810e-01  -8.2817696315716149e-01  -8.8076603101932960e-01  -9.1446788991615502e-01  -9.3711369105695297e-01  -9.4286340804862712e-01  -9.4088300258026081e-01  -9.2397745565099332e-01  -7.3693527052371166e-01  -6.9778233509961218e-01  -6.5993301510822233e-01  -6.2434629356087468e-01  -5.9139343256504406e-01  -5.6264407855684218e-01  -5.3669475938112687e-01  -5.1446134840360136e-01  -4.9514049985818370e-01  -4.7859055463777522e-01  -4.6486308371777479e-01  -4.5294324778840050e-01  -4.4348058331652507e-01  -4.3580676419550396e-01  -4.2917445971191731e-01  -4.2390523388579310e-01  -4.1929264470643018e-01  -4.1529056885939514e-01  -4.1142929779359905e-01  -4.0772699753800423e-01  -4.0423438867868589e-01  -4.0061422123239931e-01  -3.9700797412909122e-01  -3.9370960056439130e-01  -3.9044421228538373e-01  -3.8766739076386020e-01  -3.8550533977852924e-01  -3.8376950472431431e-01  -3.8299664605226924e-01  -3.8306574310740527e-01  -3.8393867166813811e-01  -3.8564507062983672e-01  -3.8812696516891276e-01  -3.9121031597014105e-01  -3.9489351365010594e-01  -3.9895472493212886e-01  -4.0323631709726787e-01  -4.0766776320598413e-01  -4.1207871774604077e-01  -4.1663442273137186e-01  -4.2110612303149852e-01  -4.2583700328640822e-01  -4.3086597832115275e-01  -4.3619884953859306e-01  -4.4269309100331317e-01  -4.4947140263132845e-01  -4.5846301857751781e-01  -4.6875992084677798e-01  -4.8068637011456083e-01  -4.9524607768201234e-01  -5.1200716547608094e-01  -5.3150259987232373e-01  -5.5391888994640059e-01  -5.7942923135358304e-01  -6.0832110536444040e-01  -6.4014879244924638e-01  -6.7466259402984974e-01  -7.1203687358016787e-01  -7.4982069597802681e-01  4.5807288910781774e-01  4.5715834069923200e-01  4.5516514217825899e-01  4.5225855255439740e-01  4.4766431319733130e-01  4.4105307415696010e-01  4.3159636653764749e-01  4.1888049547722067e-01  4.0168522351001062e-01  3.7978834026470482e-01  3.5238622060818769e-01  3.1843268869397601e-01  2.8013609592068572e-01  2.3576406582431517e-01  1.8879355650519983e-01  1.4030819658771190e-01  9.0710915514169349e-02  4.5172142365913465e-02  1.2291444755805207e-03  -3.7702499960269621e-02  -7.1069060991817173e-02  -9.9354441613609804e-02  -1.2201299287372376e-01  -1.3852159894944233e-01  -1.5004879525553619e-01  -1.5655904878989077e-01  -1.6010856703269702e-01  -1.6090332848804853e-01  -1.5848575026887171e-01  -1.5663239683854713e-01  -1.5326070737606798e-01  -1.4950552078883009e-01  -1.4464180696613452e-01  -1.3649638874927855e-01  -1.2275681693186104e-01  -1.0143739402764933e-01  -6.8526384001520793e-02  -2.7344585041023092e-02  1.9143588125644741e-02  6.9065956435242951e-02  1.1202665610980314e-01  1.6067918200682010e-01  1.5619272544246238e-01  1.3480028928701698e-01  1.0333896082714425e-01  6.7352020968808671e-02  3.7299400368332160e-02  2.1129973770755702e-02  1.7942118745408606e-02  2.7847507995179783e-02  4.2908015229922068e-02  5.7333296856161710e-02  6.6105552571634085e-02  6.8046622851531541e-02  6.5549597915358207e-02  6.4797990703831007e-02  6.8590308122063598e-02  7.7334613676387789e-02  8.8357377805464599e-02  1.0034366465019140e-01  1.0849945338210992e-01  1.1264108906049065e-01  1.1178028377260039e-01  1.0706449669427016e-01  9.7999488734072090e-02  8.7042311905785458e-02  7.4743194036246824e-02  6.0900955805807948e-02  4.7513146071323481e-02  3.4030604810426975e-02  2.2691433601182115e-02  1.4138407535629604e-02  1.3865216961644391e-02  2.0167223260703214e-02  3.6052139720052362e-02  5.6492104662583795e-02  7.4877302542402061e-02  8.8393825447512175e-02  9.3062279294881187e-02  8.9377106659736250e-02  7.9074105718400567e-02  6.5576423900471983e-02  5.0212414525121596e-02  3.4904146056201783e-02  1.9800636306987016e-02  5.2019647518946818e-03  -8.7755073807043431e-03  -2.0826563917100027e-02  -2.8317311204766459e-02  -3.0572045095087506e-02  -2.6325588784411158e-02  -1.5011828052532530e-02  7.2551099809043589e-04  1.6591671311757261e-02  2.8617875845215513e-02  3.2600602913596032e-02  2.8073806516674456e-02  1.6669685688100105e-02  0.0000000000000000e+00  0.0000000000000000e+00  0.0000000000000000e+00  0.0000000000000000e+00  0.0000000000000000e+00  0.0000000000000000e+00  0.0000000000000000e+00  0.0000000000000000e+00  0.0000000000000000e+00  0.0000000000000000e+00  0.0000000000000000e+00  0.0000000000000000e+00  0.0000000000000000e+00  0.0000000000000000e+00  0.0000000000000000e+00  0.0000000000000000e+00  -3.2412313984507518e-03  -3.7456852035164818e-03  -9.1049087369397027e-04  4.8345830434585674e-03  1.3419471802620816e-02  2.3889588893643662e-02  3.6514825989358679e-02  4.9340728012143592e-02  6.1630670715324867e-02  7.0940678151302283e-02  7.4879582057257935e-02  6.9688249188855647e-02  5.7601149289967075e-02  4.0935516094985983e-02  2.3372941598720630e-02  1.0715160550645775e-02  2.8032796542407940e-03  3.1225352557439638e-03  8.4207179437676173e-03  1.6610267858690898e-02  2.6877645969293963e-02  3.8203962073324951e-02  4.9531293854735606e-02  6.1194640455359280e-02  7.2725185088186761e-02  8.3542389595919878e-02  9.2148601013572598e-02  9.6916584912038972e-02  9.6530697318554598e-02  8.9050061305663161e-02  7.7111402859108197e-02  6.2534299896304685e-02  4.9491376193872762e-02  4.0590487168545630e-02  3.8043101972708306e-02  4.1508509451446594e-02  4.7502281000854060e-02  5.3729228442464784e-02  5.8240470415064541e-02  6.0967014984413745e-02  6.4197907399988124e-02  7.0293691341689252e-02  8.0147134810260146e-02  9.2403863197541139e-02  1.0668006258796682e-01  1.1897431860729586e-01  1.2928255124146140e-01  1.3528120084997033e-01  1.3543577874247772e-01  1.3091958728293332e-01  1.1898231714166255e-01  9.9394218721582911e-02  7.1054447596950537e-02  3.6096086918879437e-02  -2.1602585315835015e-04  -3.3763503517280809e-02  -5.7369387362134441e-02  -5.8063089410791857e-02  -3.9104118370621853e-02  -1.2781831366574922e-02  7.6923850128949667e-03  2.2245453466261469e-02  2.6561346727774278e-02  2.1519762364177124e-02  8.1806589863842542e-03  -1.0270079311161143e-02  -3.1860509167819052e-02  -5.5259744577268101e-02  -7.6758590466223367e-02  -9.6142919702422516e-02  -1.1188864795023738e-01  -1.2414569194833107e-01  -1.2832955591209305e-01  -1.2888842950839841e-01  -1.2089404537268501e-01  -1.0985277801669180e-01  -8.9616125521641679e-02  -6.4231527875049849e-02  -3.4623357374158191e-02  2.3373399518779748e-03  4.1501361997111026e-02  8.3919274318798670e-02  1.2799506469507865e-01  1.7180666443323223e-01  2.1402943011324549e-01  2.5383570889439705e-01  2.8930968501166587e-01  3.1967537579363386e-01  3.4598260921568486e-01  3.6688229229080072e-01  3.8322181632775237e-01  3.9620944478190784e-01  4.0559598815197007e-01  4.1251832903112545e-01  4.1731561272721301e-01  4.2047979044034933e-01  4.2239660698963172e-01  4.2346899744661232e-01  4.2399811548480781e-01  4.2499595432037890e-01  4.2860269687923025e-01  4.3600248586992812e-01  4.4806527653650535e-01  4.6561856184146400e-01  4.8876806639505371e-01  5.1737242578205389e-01  5.5086574524231902e-01  5.8835038810406404e-01  6.2768532920822895e-01  6.6732150405324853e-01  7.0435079231902120e-01  7.3588072769068535e-01  7.6056786843382473e-01  7.7531860015415566e-01  7.7952067249635459e-01  7.7235112309779397e-01  7.5495571301784548e-01  7.2854987963122375e-01  6.9650479674274257e-01  6.6017609686547662e-01  6.2263445978022680e-01  5.8617963681398411e-01  5.5304796386876032e-01  5.2423420195066572e-01  5.0082367670747296e-01  4.8302540471605276e-01  4.7061080530864202e-01  4.6333439765719503e-01  4.5946499667484642e-01  4.5860752749486605e-01  1.4602341597166626e-01  1.5844021908960659e-01  1.7075728384375133e-01  1.7225731756543217e-01  1.6812496706595137e-01  1.6584675131493273e-01  1.0802044847852421e-01  6.5916610063720932e-02  4.3094096441713414e-02  2.5349157664320502e-02  -1.3061131768452403e-03  -3.3488543146113652e-02  -6.5419159271218885e-02  -8.2400093100059829e-02  -8.0866337779052611e-02  -6.8723491672050691e-02  3.7478372020967959e-02  -1.0350536513027690e-02  -5.9465529880635094e-03  -4.1211386007837469e-02  1.0137099865963358e-02  -4.8485714367524926e-02  9.8717673482036042e-02  2.2846595989808961e-02  -8.0647742159596879e-03  1.3421436146317628e-01  6.7597566744081350e-02  7.3040463206404144e-02  3.7430625078730989e-02  1.1974966274667359e-01  5.1373978372004629e-02  1.0756696341332840e-01  1.1257145215019068e-02  6.8317498761520726e-02  5.5015303971784425e-02  7.6242307806785570e-04  -3.6657416180013599e-02  6.9300432130983844e-02  6.9049816396753491e-02  -2.3875854409470314e-02  6.1130969888742503e-02  4.2314573662662718e-02  9.8343774932923705e-02  1.9503810860990407e-02  1.3216162109994248e-01  -5.7595126376788305e-02  5.8755524844239432e-02  -1.4405403338036910e-02  4.9754392493533993e-02  -2.7470245611703925e-03  6.0687874089436870e-02  2.9173458763323366e-02  8.0173653752382515e-02  5.1524349671902914e-03  1.5494572775820267e-02  2.4229654171227862e-02  2.3498253475261709e-02  1.8433298068154330e-02  1.0945383177026166e-02  1.0372287810183609e-01  7.1792413172600517e-02  1.0959313714189022e-02  -1.5444142265759081e-02  4.9947657095365153e-02  1.6290709305119289e-01  -5.8178784209218185e-03  6.1038510973042644e-02  1.0661273623801897e-01  4.1946482213293536e-02  9.8066228028368396e-02  1.0696598755177683e-01  8.0687104509511054e-02  3.9175446167891696e-02  5.6687852214348827e-02  6.0111691043618562e-02  1.1852410578978406e-01  2.1713847302630662e-02  -3.7284277198499471e-02  1.4362101946722669e-01  -2.2827249363218567e-02  5.6782588864301264e-02  8.9679254540921224e-02  -1.8808345718847378e-02  -1.5860427551409349e-02  -1.7707739045396454e-02  7.5783153443629306e-02  -4.6608696289386589e-02  8.7594300483222559e-02  5.7388183957972162e-02  1.0834302746842592e-01  -1.2894076455838786e-02  8.3254275864980062e-03  2.4712787845568764e-02  4.0999044829697184e-02  9.4568017039885433e-02  3.8006827508042344e-02  2.7070908754073007e-02  1.2607502067357261e-03  3.3829041042760195e-02  1.3299904389529449e-01  4.9837017050025037e-02  -1.2340033535315400e-02  -6.3737243696124643e-02  -1.5131596375646348e-02  4.5319576392966111e-02  1.1933038322269310e-01  9.2089715629584492e-04  4.0060305523250961e-02  1.2700743650745402e-02  -4.5048667401607415e-02  4.8228557739478019e-02  7.3575448436990654e-02  -4.6513833344726967e-02  7.7847662383669650e-02  8.1983335575326654e-04  4.4712551315335289e-02  5.6378721753981557e-02  -5.1909907804898233e-03  3.6623164676766407e-04  8.0999728720198116e-02  2.8055407493246032e-02  1.9001253945546196e-02  -4.5199305826931777e-03  -4.0264527776341777e-02  6.0463786499203136e-02  6.5142419556541015e-02  2.2465812626755160e-02  1.0200295873664694e-01  4.2147741818421007e-02  1.4154472770890592e-01  -3.9048969089183476e-02  6.8752100074265174e-02  1.8620748101006716e-02  2.1447436216535189e-02  2.4256699880940251e-02  -5.0236015809859272e-02  3.5282106731755289e-02  4.3645855022383044e-02  5.0373114512333624e-02  2.7423603526874552e-02  6.9170333704298651e-03  8.8107209108454973e-02  1.0115154598429006e-01  3.7977029728605061e-02  2.6133805324016327e-02  9.0459304368422117e-02  -4.4873587185865031e-02  1.4850195789826562e-02  3.6223801875969490e-03  6.3698890212901677e-02  8.8468509123276223e-02  -2.2451434432350969e-03  -8.8185315311695323e-02  4.1459848609217136e-02  1.5065777823412005e-01  5.3396711231831859e-02  5.0027631518549304e-02  1.7650859991110246e-01  -2.6411839295042861e-02  -1.1464709118900501e-02  8.9607753135971163e-02  -2.8674770334675914e-02  1.1472852921285705e-01  -1.0106344548897236e-03  -4.9724189154705485e-03  1.3380250988805015e-02  8.6342348261584188e-03  6.1487404198044389e-02  1.1609828351666206e-01  2.9026000254322518e-02  8.3006772447956359e-02  7.3096241464581505e-02  8.9609022646177910e-03  1.1713268459177045e-01  9.5518359639108194e-02  2.7283094260906728e-02  1.1778896924794660e-01  4.0050635851939000e-02  8.0461402108683272e-02  4.0135273245712505e-02  5.9539176452267507e-02  3.2424704649232881e-02  8.6250567406789241e-02  1.7380537892710660e-02  5.9386590363940762e-02  8.2254332244808114e-03  2.4572002513865383e-02  8.0216002560917501e-02  7.1469099024122254e-02  2.1081445032943971e-02  -1.4718222709393642e-02  4.8718043855859924e-03  1.0300479219728119e-02  1.3608408828379537e-03  -5.1641945511220373e-02  1.6360118107159070e-02  -5.6335096924692282e-02  2.9604695119348660e-02  1.7531613704504351e-01  -6.1536054217513503e-03  3.6689220321559975e-02  1.0427391349325153e-02  -1.9608559768941065e-02  1.0387364165821149e-01  3.1079746634401221e-02  8.2067944883790531e-02  3.3684552654039496e-02  -5.7862095076899558e-02  -6.5146403816795711e-03  7.4588462078790191e-02  5.5601603549428266e-02  -1.0625258701419735e-02  1.0625536481087881e-01  1.2358780902378341e-01  -8.6976868436073782e-04  5.7178931756315499e-02  1.1388632537158787e-01  2.6368744154902819e-02  -2.8034450335357945e-02  2.3721761113458975e-03  1.2994224165336354e-01  4.4024744512181864e-02  7.4909812202564680e-02  7.6265425864886535e-02  -1.2539966184498208e-01  3.7400360939366162e-02  -3.2027489514528822e-02  1.2375303424277602e-02  6.9677132415096724e-02  5.3933409790514308e-02  1.3474144150658551e-01  -3.8936087216862648e-03  4.8059108081401236e-02  -2.4644948080890971e-02  2.4852292107702081e-02  5.1515459271921707e-02  -7.7026972180196723e-03  1.3045693776508929e-01  8.6775629522553299e-02  4.7825430217889313e-02  1.3263825396484222e-02  1.1119332890080119e-01  9.3773976934629105e-02  6.2823179640579480e-03  4.2356992545366887e-02  1.4142267997811637e-02  3.4069493506620002e-02  2.0611108772349999e-02  1.0863106250490981e-02  1.1057137324513372e-01  9.1661914469087988e-02  2.0933699366080881e-02  6.6047042819562904e-02  6.4273841099725781e-02  6.6527573874403823e-03  8.7086974241168388e-02  6.2904498579491222e-02  7.7143517800336833e-02  -9.3516547359264266e-03  9.4087377239021844e-02  3.2899961493253166e-02  -1.2911665125341906e-02  -4.1524331498680525e-02  6.9114440856233791e-02  1.1170423705277203e-01  7.5434042355714478e-02  1.1872450506652234e-02  4.1295216924031528e-02  -6.1441877101897045e-02  6.6215536981334824e-02  7.7630416902809030e-02  1.3608729109155127e-01  5.0831313056607971e-02  -2.6421987407124675e-02  -6.2534631192104157e-03  5.9177163029357542e-02  9.6175670191591248e-02  8.3567465191556277e-05  3.7237724759577921e-02  1.3981344403737675e-01  -1.2963724088287376e-03  8.5207769482725335e-02  -1.2283619922333499e-02  1.9276120727377857e-02  5.6773400003593016e-02  -2.7795243231376154e-03  4.8659333534771303e-02  4.6829057627517510e-02  4.2773098916179732e-02  -2.5189873204798319e-02  9.4608171422401549e-02  1.2418869274683232e-01  8.2280358262964759e-02  7.1863449273616056e-02  1.5007554269859677e-02  4.9583902735241527e-02  9.6804980905259033e-02  -4.4692187075999971e-02  -5.4660551274436520e-03  4.8505437639373671e-02  1.0149496329910405e-01  4.1413715690249986e-02  4.1115495265199864e-02  3.5304587955574264e-02  1.8985571940338267e-01  -6.5337899526063767e-02  -8.4683461039922123e-03  6.1651901217045266e-02  -2.0399085544000540e-02  5.9002415153189013e-02  3.2372878914953170e-02  7.9616122984701235e-02  -3.8798396306436002e-05  9.7970051828401766e-02  -2.0355635853067675e-04  3.3067181123148305e-02  2.2448969972515529e-02  4.5826503952255730e-02  1.7836294199736723e-02  7.3951978268401219e-02  2.5803620718573856e-02  -2.6763025848157981e-02  1.4718813643020301e-01  2.3798946818189698e-02  1.3026267642451800e-01  -4.3507668090737681e-02  4.4702283629094931e-02  -1.5958049026690038e-02  -2.7132113213277857e-02  8.4768570710296601e-02  2.5891518724715609e-02  8.1226323491981209e-02  4.2840719487135179e-02  8.7247184505996021e-03  -5.0058897005528638e-02  8.7792726186482466e-03  1.1498450560959601e-01  8.3203065129076506e-02  1.1189604566912754e-01  1.2166880661349591e-02  1.6505629420810730e-01  -1.0936960890501061e-02  7.2269126967885455e-02  3.0109696012828393e-02  4.9614329667385645e-02  1.0946853660085452e-01  1.0891853433143691e-02  -5.9401366348967213e-02  7.8303204147505995e-02  6.1166626617376089e-02  3.3820341011916335e-03  6.3411432256428174e-02  2.8314311980038972e-02  -1.2477380079633357e-02  -4.0384569297380553e-02  -7.5573064175702750e-03  1.1046135427611393e-01  1.1105768286419897e-02  9.8497901407056776e-02  9.2475882097152962e-02  -5.6000182354017707e-02  1.1346763682091900e-02  1.2805510396899485e-02  3.6344072856262080e-02  8.2392332745900604e-02  -6.4665186392711294e-02  9.3798460463988802e-03  9.2837562118091216e-02  6.3179734042227084e-02  -8.7348618493115308e-03  5.8058988986982446e-02  4.3186498859902486e-02  1.1287197816967313e-01  9.9816587220434905e-02  8.7432759954391301e-02  -7.1165709941570301e-02  1.2344374539532210e-01  2.3706943588572452e-02  9.5730808255423308e-02  6.2534415404850247e-02  3.4943415760700973e-02  5.4111780911373669e-02  3.3684029960818804e-02  8.3678446016223498e-02  2.6095216355659315e-02  -1.1081653889073220e-02  7.3232340521359976e-02  -1.7690377331326491e-02  2.5287923903589159e-02  4.1472028796790926e-02  4.1083302820405065e-02  5.0632331307359328e-02  2.3094713784169423e-02  -1.0222349961903786e-02  1.0349653394408928e-01  1.6813928088607863e-02  4.4081787548549585e-02  5.4908958017737992e-03  -1.0998553903043510e-03  4.5871707618409885e-03  -2.3567265066217726e-02  1.1403642758901084e-01  5.2194038720560334e-03  1.3862603562902597e-02  -1.2969351303304446e-02  6.7479375888778628e-02  7.0777350333308495e-02  6.4981293076994462e-02  -6.2621443895231041e-02  -3.3548386460233143e-02  1.3898469926160922e-01  4.0076858010834507e-02  1.0866027152814336e-02  7.1817318273871278e-02  -1.3940033618260555e-02  9.2262793017994352e-02  -9.1803071014024146e-03  3.8066971357492338e-03  3.1997482473105750e-02  -6.7940096233980651e-03  -3.2709793258049063e-03  2.5552113945843457e-02  2.1084502109492434e-02  -2.4056626923613998e-03  4.8489389391510727e-02  1.2923168844395769e-01  6.7445438416537731e-02  8.8358446668606150e-02  3.0006500476150240e-03  2.6742665256687680e-02  6.4131743069172728e-02  3.9434985477467280e-02  1.0045090832397753e-01  1.5931899955029680e-02  5.6867269402985594e-02  -3.2325486915518488e-02  1.3540133358591241e-01  -2.2091607240827534e-02  1.2606542055330963e-01  1.8954913868895668e-02  5.7492613426582288e-02  -1