<?xml version="1.0"?>
<VTKFile type="UnstructuredGrid"  version="0.1"  >
<UnstructuredGrid>
<Piece  NumberOfPoints="4820" NumberOfCells="9262">
<Points>
<DataArray  type="Float64"  NumberOfComponents="3"  format="ascii">0.004357787137382907 0.04980973490458728 0  3.061616997868383e-18 0.05 0  -0.004357787137382901 0.04980973490458728 0  -0.004357787137382912 -0.04980973490458728 0  -9.184850993605149e-18 -0.05 0  0.004357787137382894 -0.04980973490458728 0  -0.2 -0.2 0  0.55 -0.2 0  2 -0.2 0  2 0.21 0  0.55 0.21 0  -0.2 0.21 0  0.002180969358710071 0.04995241107951016 0  -0.002180969376377175 0.04995241107873878 0  -0.00218096936205605 -0.04995241107936408 0  0.002180969376762267 -0.04995241107872198 0  -0.00681459716460041 0.04953343583362881 0  -0.009254746165878699 0.04913603233275104 0  -0.01167226821331763 0.04861849601495686 0  -0.01406125270101674 0.04798209220613614 0  -0.01641585879600313 0.04722837685110179 0  -0.01873032971283131 0.04635919271135586 0  -0.02099900679895535 0.04537666485604058 0  -0.02321634335656028 0.04428319547131056 0  -0.02537691821523419 0.04308145798249308 0  -0.02747544897576464 0.04177439052314415 0  -0.0295068049360126 0.04036518874560236 0  -0.03146601963036187 0.03885729800979068 0  -0.03334830296690066 0.03725440496408185 0  -0.03514905295182857 0.03556042852089316 0  -0.03686386691867947 0.03377951029547187 0  -0.03848855232085789 0.03191600445301051 0  -0.04001913696023074 0.02997446708380811 0  -0.04145187870654155 0.02795964505672717 0  -0.04278327464009846 0.02587646442367869 0  -0.04401006963121561 0.02373001835346012 0  -0.04512926428658137 0.02152555469556806 0  -0.04613812228218922 0.0192684631528764 0  -0.04703417705848439 0.01696426209509693 0  -0.04781523785065199 0.0146185850644164 0  -0.04847939503850856 0.01223716702101564 0  -0.04902502482533359 0.009825830289366174 0  -0.04945079319725205 0.00739047036139188 0  -0.04975565919278197 0.004937041451287537 0  -0.04993887744399172 0.002471541954727039 0  -0.05000000000000002 -2.179027782864273e-10 0  -0.04993887742290181 -0.002471542380860383 0  -0.04975565915220143 -0.004937041860259632 0  -0.04945079313853181 -0.007390470754298181 0  -0.04902502474990915 -0.009825830665689136 0  -0.04847939494791073 -0.01223716737993267 0  -0.04781523774597484 -0.01461858540679994 0  -0.04703417694176702 -0.01696426241870103 0  -0.04613812215449838 -0.01926846345863071 0  -0.04512926414810409 -0.02152555498589172 0  -0.04401006948618459 -0.02373001862243695 0  -0.04278327448542859 -0.02587646467940464 0  -0.04145187854660255 -0.0279596452938465 0  -0.04001913680095092 -0.02997446729646378 0  -0.03848855215910903 -0.03191600464806871 0  -0.03686386675419343 -0.0337795104749769 0  -0.03514905278746659 -0.03556042868335375 0  -0.0333483028093871 -0.0372544051050802 0  -0.03146601947545011 -0.03885729813523576 0  -0.02950680478964417 -0.04036518885259716 0  -0.02747544883924331 -0.04177439061293563 0  -0.0253769180845661 -0.04308145805946247 0  -0.02321634324304243 -0.04428319553082456 0  -0.02099900669895044 -0.04537666490231995 0  -0.01873032963061061 -0.04635919274457518 0  -0.01641585872377311 -0.04722837687620784 0  -0.01406125264610136 -0.04798209222222922 0  -0.01167226817214395 -0.04861849602484179 0  -0.009254746140787012 -0.04913603233747704 0  -0.006814597153124481 -0.04953343583520761 0  0.006814597163087254 -0.04953343583383697 0  0.009254746162416328 -0.04913603233340317 0  0.01167226820749043 -0.04861849601635584 0  0.01406125269526824 -0.04798209220782076 0  0.01641585878869484 -0.04722837685364205 0  0.01873032970478165 -0.04635919271460813 0  0.02099900678940205 -0.04537666486046157 0  0.02321634334324823 -0.04428319547828967 0  0.02537691819928517 -0.04308145799188777 0  0.02747544895679411 -0.04177439053562125 0  0.02950680491571239 -0.04036518876044175 0  0.03146601960788315 -0.03885729802799359 0  0.03334830294823126 -0.03725440498079377 0  0.03514905293079007 -0.03556042854168828 0  0.03686386690162479 -0.03377951031408381 0  0.03848855230703181 -0.03191600446968382 0  0.04001913694627814 -0.02997446710243633 0  0.04145187869083342 -0.02795964508001545 0  0.04278327462632659 -0.02587646444644864 0  0.04401006962056583 -0.02373001837321138 0  0.04512926427712953 -0.02152555471538427 0  0.04613812227399118 -0.01926846317250652 0  0.04703417705106056 -0.01696426211567986 0  0.04781523784312168 -0.01461858508904696 0  0.04847939503319636 -0.01223716704206073 0  0.04902502482144694 -0.009825830308758294 0  0.04945079319422288 -0.007390470381660498 0  0.0497556591909245 -0.004937041470007301 0  0.04993887744294273 -0.002471541975922472 0  0.05000000000000002 1.960026680888904e-10 0  0.04993887742406512 0.002471542357355427 0  0.0497556591543939 0.004937041838163785 0  0.04945079314184119 0.007390470732154637 0  0.04902502475403982 0.009825830645079567 0  0.04847939495309415 0.01223716735939779 0  0.04781523775084436 0.01461858539087247 0  0.04703417694693356 0.01696426240437658 0  0.04613812215952091 0.01926846344660432 0  0.04512926415455419 0.02152555497236883 0  0.04401006949386337 0.02373001860819578 0  0.04278327450092428 0.0258764646537846 0  0.04145187856220046 0.02795964527072164 0  0.04001913681616228 0.02997446727615497 0  0.03848855217730672 0.03191600462612355 0  0.03686386677147228 0.03377951045612033 0  0.03514905280168957 0.03556042866929533 0  0.0333483028196165 0.03725440509592335 0  0.03146601948352148 0.03885729812869969 0  0.02950680480117144 0.04036518884417076 0  0.02747544884918156 0.04177439060639914 0  0.02537691809390653 0.04308145805396053 0  0.02321634324922249 0.04428319552758454 0  0.02099900670813883 0.04537666489806784 0  0.01873032963827596 0.04635919274147818 0  0.01641585873206496 0.04722837687332573 0  0.01406125264532184 0.04798209222245766 0  0.01167226817007835 0.04861849602533769 0  0.009254746139683721 0.04913603233768484 0  0.006814597151967234 0.04953343583536681 0  -0.1875196675247935 -0.2 0  -0.1748316574073939 -0.2 0  -0.1619325191073485 -0.2 0  -0.1488187266915765 -0.2 0  -0.1354867190390691 -0.2 0  -0.1219328601465505 -0.2 0  -0.1081534589822707 -0.2 0  -0.09414476550972861 -0.2 0  -0.07990295838040007 -0.2 0  -0.06542416251428446 -0.2 0  -0.05070442829752772 -0.2 0  -0.03573975778997357 -0.2 0  -0.02052606446908414 -0.2 0  -0.005059208186730002 -0.2 0  0.0106650220181323 -0.2 0  0.02665090828184707 -0.2 0  0.04290281009001662 -0.2 0  0.05942514756265038 -0.2 0  0.07622242703544463 -0.2 0  0.09329921759985482 -0.2 0  0.110660176225582 -0.2 0  0.1283100240439488 -0.2 0  0.146253576648871 -0.2 0  0.1644957213272042 -0.2 0  0.1830414174264912 -0.2 0  0.2018957247245375 -0.2 0  0.2210637776854531 -0.2 0  0.2405507899571802 -0.2 0  0.2603620802338072 -0.2 0  0.2805030369240936 -0.2 0  0.3009791461642926 -0.2 0  0.3217959913512258 -0.2 0  0.3429592352388189 -0.2 0  0.3644746444814039 -0.2 0  0.3863480802046066 -0.2 0  0.4085854997083186 -0.2 0  0.4311929582382759 -0.2 0  0.4541766169094176 -0.2 0  0.4775427325114808 -0.2 0  0.5012976686781503 -0.2 0  0.5254479007761028 -0.2 0  0.5750000000714078 -0.2 0  0.6000000001173931 -0.2 0  0.6250000002059986 -0.2 0  0.6500000002385247 -0.2 0  0.675000000336103 -0.2 0  0.7000000003686291 -0.2 0  0.7250000004542437 -0.2 0  0.7500000005062106 -0.2 0  0.7750000005716368 -0.2 0  0.8000000006490264 -0.2 0  0.8250000006890297 -0.2 0  0.8500000007910944 -0.2 0  0.8750000008565204 -0.2 0  0.9000000009518555 -0.2 0  0.9250000010408349 -0.2 0  0.9500000011343006 -0.2 0  0.9750000012251494 -0.2 0  1.000000001296183 -0.2 0  1.0250000013646 -0.2 0  1.050000001466665 -0.2 0  1.075000001557888 -0.2 0  1.100000001673038 -0.2 0  1.125000001762017 -0.2 0  1.150000001851744 -0.2 0  1.175000001947827 -0.2 0  1.200000002046153 -0.2 0  1.225000002155695 -0.2 0  1.25000000221813 -0.2 0  1.275000002244301 -0.2 0  1.300000002154947 -0.2 0  1.325000002108962 -0.2 0  1.350000002019609 -0.2 0  1.375000001973624 -0.2 0  1.400000001884271 -0.2 0  1.42500000182707 -0.2 0  1.450000001748932 -0.2 0  1.475000001659579 -0.2 0  1.500000001570226 -0.2 0  1.525000001480872 -0.2 0  1.550000001391519 -0.2 0  1.575000001345534 -0.2 0  1.60000000125618 -0.2 0  1.625000001210195 -0.2 0  1.650000001120842 -0.2 0  1.675000001066632 -0.2 0  1.700000000985504 -0.2 0  1.725000000905871 -0.2 0  1.750000000850165 -0.2 0  1.775000000760812 -0.2 0  1.800000000714827 -0.2 0  1.825000000625473 -0.2 0  1.85000000053612 -0.2 0  1.875000000446767 -0.2 0  1.900000000357413 -0.2 0  1.92500000026806 -0.2 0  1.950000000178707 -0.2 0  1.975000000089353 -0.2 0  2 -0.1758823529236379 0  2 -0.1517647057870068 0  2 -0.1276470586430415 0  2 -0.103529411528254 0  2 -0.07941176439513059 0  2 -0.05529411724717925 0  2 -0.03117647008918309 0  2 -0.007058822960843009 0  2 0.01705882406928105 0  2 0.0411764710640091 0  2 0.06529411804247409 0  2 0.08941176503720205 0  2 0.11352941203193 0  2 0.137647059026658 0  2 0.1617647060111818 0  2 0.185882353005272 0  1.974999999927471 0.21 0  1.949999999833257 0.21 0  1.924999999782412 0.21 0  1.899999999688198 0.21 0  1.874999999637353 0.21 0  1.849999999543139 0.21 0  1.824999999448926 0.21 0  1.799999999354712 0.21 0  1.774999999260499 0.21 0  1.749999999166286 0.21 0  1.724999999082914 0.21 0  1.699999998977859 0.21 0  1.674999998902712 0.21 0  1.649999998789432 0.21 0  1.624999998688863 0.21 0  1.599999998581938 0.21 0  1.574999998495201 0.21 0  1.549999998413699 0.21 0  1.524999998318364 0.21 0  1.499999998273501 0.21 0  1.474999998238357 0.21 0  1.449999998189755 0.21 0  1.424999998038714 0.21 0  1.399999997975905 0.21 0  1.37499999792992 0.21 0  1.349999997902628 0.21 0  1.324999997821126 0.21 0  1.299999997699994 0.21 0  1.274999997636438 0.21 0  1.249999997681301 0.21 0  1.224999997765794 0.21 0  1.199999997857764 0.21 0  1.174999997916835 0.21 0  1.149999998014039 0.21 0  1.124999998067875 0.21 0  1.09999999816508 0.21 0  1.074999998218916 0.21 0  1.049999998316121 0.21 0  1.02499999838865 0.21 0  0.999999998467161 0.21 0  0.9749999985209969 0.21 0 
[...]
<PointData  Scalars="pressure"> 
<DataArray  type="Float64"  Name="pressure"  format="ascii">-7.7086814558645644e-01  -8.3679270755660196e-01  -8.8749465433398200e-01  -9.1974004504343942e-01  -8.6078790390465154e-01  -7.9312269982503436e-01  4.5550712020291484e-01  1.5139087137907634e-01  0.0000000000000000e+00  0.0000000000000000e+00  -6.5317180310598091e-02  4.3345295157063868e-01  -8.0363666250593291e-01  -8.6509254653646017e-01  -8.9167905502442502e-01  -8.2635735765223262e-01  -9.0937284150413777e-01  -9.2147639455046004e-01  -9.2186842982762851e-01  -9.1056990286866324e-01  -8.8530132428073782e-01  -8.4334874843384089e-01  -7.8718199134397271e-01  -7.1713448079514930e-01  -6.2902166428984829e-01  -5.2367911384386245e-01  -4.0407508149248594e-01  -2.7477728402266771e-01  -1.3330770030447009e-01  2.3856911041442549e-02  1.8386295074730163e-01  3.5421119160573489e-01  5.2534929347162840e-01  6.9468453261774421e-01  8.6889963247579183e-01  1.0309665442581268e+00  1.1927630642344031e+00  1.3427166258533871e+00  1.4784031747028856e+00  1.6033998039711894e+00  1.7096407698532636e+00  1.7978876782738804e+00  1.8678058543025715e+00  1.9185361843196707e+00  1.9437597818546735e+00  1.9491758214075843e+00  1.9327908314438635e+00  1.8934423693485727e+00  1.8339435565943927e+00  1.7529884070242225e+00  1.6546856334772742e+00  1.5405203086447574e+00  1.4078155246168311e+00  1.2656911077982089e+00  1.1098098441408855e+00  9.4501804243254528e-01  7.7602009297391017e-01  6.0216921523074052e-01  4.3121245390176144e-01  2.6107102158004841e-01  8.9767197857392844e-02  -6.2306562711124683e-02  -2.2044575538472186e-01  -3.5602106135421741e-01  -4.8563675724426419e-01  -5.9610634793522810e-01  -6.9851909870347384e-01  -7.7989541252776529e-01  -8.4850762803995605e-01  -9.0141082261081074e-01  -9.3533314885269214e-01  -9.5810462295081333e-01  -9.6383035512944415e-01  -9.6172774538139838e-01  -9.4442371818375359e-01  -7.5087696527009917e-01  -7.1136871161647097e-01  -6.7294601074830263e-01  -6.3663178432106471e-01  -6.0290332310366990e-01  -5.7336346983367248e-01  -5.4662313560701559e-01  -5.2362996980748377e-01  -5.0357359237757238e-01  -4.8632574781248128e-01  -4.7191779196794464e-01  -4.5934106843435846e-01  -4.4925163373816668e-01  -4.4097987478127354e-01  -4.3376573591934831e-01  -4.2795322728433888e-01  -4.2282041979641838e-01  -4.1832936665463122e-01  -4.1399326133277481e-01  -4.0982986367944169e-01  -4.0589013417931896e-01  -4.0181081851977807e-01  -3.9772559509837430e-01  -3.9394357636040211e-01  -3.9015382303503388e-01  -3.8683743647981705e-01  -3.8409589714392833e-01  -3.8176272180258247e-01  -3.8037243151271105e-01  -3.7981402876771364e-01  -3.8006237365631496e-01  -3.8114197392714683e-01  -3.8302535433258833e-01  -3.8552945147999013e-01  -3.8866134690342008e-01  -3.9220342572250189e-01  -3.9599352900955398e-01  -3.9995237578711818e-01  -4.0391549575757479e-01  -4.0802590283135692e-01  -4.1206049516060650e-01  -4.1634681740975016e-01  -4.2091785704675067e-01  -4.2578297123567921e-01  -4.3177006199904833e-01  -4.3804622268404342e-01  -4.4649708648089276e-01  -4.5622465174802895e-01  -4.6757294201425054e-01  -4.8151523873076157e-01  -4.9762772796540600e-01  -5.1644845311512044e-01  -5.3815131230197677e-01  -5.6293115371278113e-01  -5.9107440111753673e-01  -6.2217093250362177e-01  -6.5602831923215144e-01  -6.9286251697439771e-01  -7.3025792870316919e-01  4.5485235696941784e-01  4.5394953844889918e-01  4.5197038741812184e-01  4.4907648338552952e-01  4.4448241858676801e-01  4.3784651342761832e-01  4.2832331707966514e-01  4.1548761600165457e-01  3.9809886350658752e-01  3.7593158387092374e-01  3.4818113936395950e-01  3.1379122127462278e-01  2.7501690545579338e-01  2.3010377083672340e-01  1.8258842620422658e-01  1.3357034124290221e-01  8.3438951599888261e-02  3.7405780365704300e-02  -7.0508503852393699e-03  -4.6468490333052656e-02  -8.0393159902915887e-02  -1.0924260898654301e-01  -1.3247066929624887e-01  -1.4953487548494643e-01  -1.6151427034716667e-01  -1.6832081809230440e-01  -1.7185808658827764e-01  -1.7216900689167372e-01  -1.6853424642400430e-01  -1.6472508046998344e-01  -1.5805385826947094e-01  -1.4955791027557469e-01  -1.3758816596482101e-01  -1.2102087002303302e-01  -9.6953355619954246e-02  -6.6417688363859598e-02  -2.5950696574570192e-02  1.9011173330164152e-02  6.3802851337704095e-02  1.0640476308601550e-01  1.3712890022505350e-01  1.4863971393837838e-01  1.2680588278953756e-01  9.2467174050228862e-02  5.7393280305757091e-02  2.7389185967332513e-02  1.0741077232483137e-02  1.1236189910004295e-02  2.2329241114414509e-02  4.1137858875036425e-02  5.8496564891219800e-02  6.9934427903345503e-02  7.3863850098249695e-02  7.3859146777869047e-02  7.3206582011371701e-02  7.6432896095544295e-02  8.4294228774708782e-02  9.4533656230481253e-02  1.0389746164661365e-01  1.1141321904181974e-01  1.1428316171662908e-01  1.1308284787510378e-01  1.0759607732041600e-01  9.9442530075791222e-02  8.7946908814592523e-02  7.5536137633479467e-02  6.2664620024940748e-02  4.8910510170876241e-02  3.6423562840855968e-02  2.5078546246773054e-02  1.8708320587092427e-02  1.7607022511853008e-02  2.7414873296691608e-02  4.3078668982385104e-02  6.3742639079555866e-02  8.2928968848868398e-02  9.4571150873817011e-02  9.8293464750236439e-02  9.4207042033369257e-02  8.4220452519086525e-02  7.0071500082378613e-02  5.4816744488285350e-02  3.8717574591593126e-02  2.3149936480046974e-02  8.2426055054814918e-03  -5.0460548871138454e-03  -1.5249619627110649e-02  -2.0873158231587790e-02  -1.7640720767590195e-02  -6.5196296349554293e-03  1.0383081279620888e-02  2.9124892160602139e-02  4.6687530969521045e-02  5.6870081463797829e-02  5.9338506112168669e-02  5.2674576599666192e-02  3.8354262049476361e-02  2.0302481420155647e-02  0.0000000000000000e+00  0.0000000000000000e+00  0.0000000000000000e+00  0.0000000000000000e+00  0.0000000000000000e+00  0.0000000000000000e+00  0.0000000000000000e+00  0.0000000000000000e+00  0.0000000000000000e+00  0.0000000000000000e+00  0.0000000000000000e+00  0.0000000000000000e+00  0.0000000000000000e+00  0.0000000000000000e+00  0.0000000000000000e+00  0.0000000000000000e+00  -9.9025686218226789e-03  -1.7597101914332450e-02  -2.1015888570947678e-02  -1.8907065518799917e-02  -1.1712741449667200e-02  -1.2348510879964826e-03  1.2473718112994645e-02  2.7287607009559574e-02  4.3096979055703193e-02  5.8287389284258730e-02  7.0238102300720293e-02  7.5372574468525841e-02  7.4014171159640874e-02  6.4545686329970167e-02  4.8729170149404331e-02  3.1227465871912462e-02  1.5578467561280576e-02  7.4172164703276734e-03  5.8209587762673683e-03  9.8670179748944643e-03  1.8230224740541010e-02  2.8684317894737413e-02  3.9737766309454477e-02  5.1300799844784271e-02  6.3021513257527639e-02  7.4654052305502663e-02  8.5124133192827217e-02  9.3614232109377540e-02  9.8343713474043581e-02  9.7515779174487394e-02  9.2105129254042392e-02  8.0980422701698099e-02  6.7511179329438606e-02  5.4309841408944043e-02  4.6110273779772261e-02  4.3699554669722918e-02  4.6302246590540955e-02  5.1592608816467760e-02  5.6381915022801606e-02  5.8343422862136590e-02  5.8640562441512480e-02  5.9523575777921181e-02  6.3882037089569604e-02  7.2807881818836961e-02  8.7260802027256945e-02  1.0294119720932930e-01  1.1958907849491676e-01  1.3257984224732058e-01  1.3991182528034288e-01  1.4214371692749028e-01  1.3640271599489437e-01  1.2279439290433189e-01  9.9483880714095529e-02  6.7527879571129767e-02  3.0584496503199728e-02  -8.6891493173259730e-03  -4.2680089915318895e-02  -7.5324184439616623e-02  -6.9383559164391900e-02  -5.1912350691667525e-02  -3.3533500094944817e-02  -1.5395351233596753e-02  -4.5254344515267136e-03  -1.5397647997155931e-03  -6.7760289429612350e-03  -1.7338489271542891e-02  -3.2161085571554900e-02  -4.9781076297402187e-02  -6.7134566999598369e-02  -8.3488128204115900e-02  -9.7339720386581008e-02  -1.0838379821176335e-01  -1.1214598803928921e-01  -1.1262860644969795e-01  -1.0484531617464919e-01  -9.4118752548043916e-02  -7.4260544315694968e-02  -4.9355404012033761e-02  -2.0176610290166711e-02  1.6314576473007346e-02  5.5001893692936177e-02  9.6929769252637549e-02  1.4049498209250202e-01  1.8380607328510459e-01  2.2552600532165837e-01  2.6484022075404795e-01  2.9987630903822943e-01  3.2986813801892612e-01  3.5585260354484138e-01  3.7651501621638128e-01  3.9268973842983962e-01  4.0556514442316649e-01  4.1489468419884984e-01  4.2179276562289825e-01  4.2658936986597101e-01  4.2976341836828530e-01  4.3169372907690373e-01  4.3277662344029560e-01  4.3331286378059242e-01  4.3431137843495737e-01  4.3790180652207894e-01  4.4525672018606804e-01  4.5723621226641742e-01  4.7465495666089086e-01  4.9761331704816975e-01  5.2595784396593015e-01  5.5911693995459100e-01  5.9618362574132722e-01  6.3501358183935563e-01  6.7405951588903112e-01  7.1041350183261132e-01  7.4119179551437864e-01  7.6506944188481418e-01  7.7896575184745531e-01  7.8229622149539102e-01  7.7426048957798499e-01  7.5602973382617822e-01  7.2884104138751182e-01  6.9607914208921895e-01  6.5911738924427954e-01  6.2102976542764809e-01  5.8412163540936779e-01  5.5062213168189933e-01  5.2152357245943315e-01  4.9790031939062396e-01  4.7995565270869933e-01  4.6744692701557372e-01  4.6012322973211800e-01  4.5623391403242780e-01  4.5537891882287873e-01  1.5590183963184936e-01  1.7179427979244621e-01  1.8591450868370965e-01  1.8494879970520450e-01  1.7059326581367401e-01  1.7283232701190218e-01  1.3614321349784081e-01  1.0352236717094104e-01  8.9031376109594842e-02  6.4119424618488130e-02  2.5094360750648519e-02  -1.9465865869704436e-02  -5.7976502062531743e-02  -7.8724381300009236e-02  -8.0278254333357793e-02  -6.9884711058835827e-02  7.8785833617075515e-02  -6.0759261239285954e-03  -1.1989263040801230e-02  3.8718841143082765e-02  8.1343063479579845e-03  -3.1745481505337701e-02  1.0356817650395703e-01  1.4275361311191961e-02  -2.6983306495797114e-02  1.0261977783285510e-01  4.9677594985557072e-02  8.6002221866508979e-02  2.4263061518072743e-02  1.1947067742193783e-01  4.8655919960594471e-02  1.0521748537187618e-01  7.1486495524051022e-02  8.2859099836959257e-02  7.4056359765018948e-03  -2.3086930200787861e-02  -1.3337100611133094e-03  5.5803608873317236e-02  5.9225744951976411e-02  -2.2248836235019474e-02  9.2961145074806420e-02  2.8637110726630877e-02  8.3928377848055125e-02  4.8122432831635489e-02  1.5214182054643849e-01  -3.3332527843185668e-02  3.3297636969553922e-02  8.6437767896758236e-03  -2.0735979428542852e-02  -4.8305672383581804e-03  4.0964982606839256e-02  2.9947598668009154e-02  5.0838119690721953e-02  3.5530566343631572e-03  2.1600830150831720e-02  1.2273513091396066e-02  6.5633862994825362e-02  2.5272452920849748e-02  -2.7817080502827890e-04  9.4506658391020945e-02  1.0681374903070318e-01  3.4012363434784667e-04  2.0173926254659861e-02  6.7073038142187902e-02  1.0722406319998143e-01  -3.1670693954499958e-02  6.4196511361795577e-02  9.8292838867187801e-02  3.2260900583287712e-02  6.6191352218353927e-02  1.1954987386527480e-01  1.0185826617963165e-01  3.5428899778840638e-02  6.0906398885146866e-02  4.7345347904890644e-02  1.1251286862595747e-01  1.2751195033343521e-02  4.6175402087950899e-04  1.3484877816760796e-01  -3.3509878505982256e-02  7.6014164745680651e-02  8.1847715141723079e-02  -6.2049931320674108e-02  -2.1141915346510737e-02  -6.3142557494134541e-02  7.0090003371300766e-02  -2.8966052709914151e-02  7.8906589331331850e-02  4.2191831405085339e-02  1.3296442589983917e-01  4.6437260933700875e-02  -1.9741243980860228e-02  -5.8892701284087273e-04  3.1506048711109319e-02  1.1088445770802463e-01  5.6864220815581859e-02  5.9816050899931660e-02  -3.6829048218433039e-02  4.2886281501484255e-02  6.4779124908818347e-02  7.1240058391955338e-02  -3.1707329213316975e-02  -1.1289868568645648e-02  1.0448537298581070e-02  7.0103668567126395e-02  1.2641912391844048e-01  -1.3160976015443854e-02  7.9239116446577371e-02  -3.3725497053815287e-03  4.0757240573772738e-02  4.2655920999412129e-02  6.5138986866078261e-02  -1.5619394018211627e-02  3.8857745796647705e-02  1.6448135448000615e-02  9.4511864435844417e-02  4.4482708488853280e-02  1.4490521223439459e-02  1.8299195801316340e-02  7.0672555633496573e-02  4.4774316586026215e-02  -7.2477881060940743e-04  -1.6588092872952410e-02  -5.6020451448980380e-02  7.9258430301785116e-02  5.1751175561392006e-02  1.8968745394694345e-02  9.1047641406940452e-02  6.5183945377652347e-02  1.4694629073353574e-01  -2.0633684815901953e-02  4.8571384821053658e-02  4.0615206657174316e-02  -6.8027429587046107e-02  2.1857739103709580e-02  -3.5419803949496382e-03  2.9598061971656403e-02  3.5277417841363436e-02  8.3830030282731449e-02  6.7588823199861217e-02  -1.9511617681138408e-02  3.2918545230016479e-02  1.0487369227764962e-01  2.5993722172980464e-02  3.0065133884927018e-02  9.0038626381373305e-02  2.4200469166911116e-02  1.2924199849494795e-02  -8.5817332742102927e-03  8.3312734494216611e-02  8.8584714217572663e-02  -3.3517182179616163e-03  -7.9847322991006525e-02  6.6061122686959295e-02  1.5084143262716157e-01  4.9858714656147128e-02  4.7468696861425977e-02  1.4922269211556469e-01  -8.0798017930223899e-04  -3.4146433788746232e-02  6.8131656794088821e-02  -3.3141130005300216e-02  1.1776861105728199e-01  2.3331362971796819e-04  -2.4924943947308556e-02  -3.5010614122613054e-02  3.4911326292813433e-02  5.1483783722124254e-02  1.0628537354278045e-01  6.3203711105466770e-02  7.2201633778953972e-02  7.5894841090411988e-02  -5.5849329527600765e-03  9.5938661495196975e-02  1.0569112248492889e-01  1.7557824951285304e-02  1.2698345562447538e-01  4.1414259819167923e-02  9.9655468597119878e-02  4.2127447098266373e-02  4.9615990348084546e-02  4.1903508075100328e-02  1.1023442255969663e-01  -6.1798875468496526e-03  5.8116714400394405e-02  -1.9788012855918465e-02  8.8296879345015396e-03  6.7812072562756884e-02  6.8918095623313830e-02  1.6278899083104672e-02  6.8700577090973214e-02  -6.7995831277939895e-03  9.9326073072099341e-03  3.4339839817916516e-02  -8.6099557504585346e-03  8.6831171816808064e-02  -3.2293104479678175e-02  3.5650072377075674e-02  1.5191573397744906e-01  -1.9357471181884495e-02  2.6100163060002766e-02  7.0691580899511372e-02  -3.6545517436575983e-02  9.4764311376024687e-02  2.2285122819832637e-02  3.0346181809282797e-02  -3.7359285384915581e-03  1.0823857422038957e-02  -4.9007648796421275e-03  6.8883455250141570e-02  3.3564849815904102e-02  -1.7622992089026675e-02  9.1185031437738595e-02  1.2472295123813439e-01  -1.6758035929162939e-02  7.5922094393825079e-02  1.1926896362524773e-01  1.5844167026546986e-02  1.6295179727002094e-02  2.2932654600983319e-03  1.4608989832850408e-01  2.0047234003373434e-02  9.8654214398483472e-02  8.2168264466153385e-02  -6.7820000948433892e-02  2.2583750023212383e-02  -2.8675114813505730e-02  8.3144494873848319e-03  6.6926889848548624e-02  4.8759066094989041e-02  1.0637482287356881e-01  -2.9665887905506406e-03  4.6196667007254964e-02  1.2864410626454516e-02  5.3912783513472590e-02  8.0614563894844504e-02  -3.6094218780760488e-02  7.2655227190411814e-02  8.1646851474845322e-02  4.6233451671399292e-02  5.1421573957922170e-04  1.0939514194050763e-01  7.8148150169346273e-02  3.0058129337375308e-02  2.1946409477819940e-02  -1.2248052158427022e-02  2.2371695858751848e-02  4.9930681962541155e-02  1.0959115593632657e-02  1.3680346015432848e-01  8.0381994591520733e-02  7.6760014619386308e-02  5.2742606628609764e-03  9.4805527908186651e-02  -2.0220469531143717e-02  6.5337501677258214e-02  7.1216054554265343e-02  5.7187171347786003e-02  -2.4526969582127061e-02  8.6004182079676764e-02  3.1801663669111017e-02  -5.0213927747147795e-04  -4.8124285031032075e-02  8.8809456834742631e-02  1.0481671785022477e-01  4.0635296666894437e-02  5.2246464386824058e-03  3.4904222134868497e-02  -7.6168399412127955e-03  9.2639994040803031e-02  6.8072745634467052e-02  1.2993246173678927e-01  6.8379804098722047e-02  -2.4760663744894346e-02  -1.4419153365751744e-02  4.9451397175790689e-02  9.2699497910496642e-02  3.3860551537319365e-02  6.0096511122743765e-02  8.9813856053910388e-02  -2.4513255195350293e-02  1.0908057200584219e-01  -2.5581924637005645e-02  3.8118185340204502e-02  4.4614307765902708e-02  -4.7618458796908521e-03  6.8050627140379460e-02  4.9777336617876353e-02  3.3075056205756036e-02  3.1705311863810010e-02  7.9298185515666406e-02  1.1417063796996675e-01  6.9568764369765779e-02  1.0593105795276914e-01  8.0706931936669196e-03  8.4193929625549224e-02  1.1261041607691985e-01  -6.4033931062477956e-02  -2.2610851624013614e-03  5.7359114319878605e-02  1.1303107547801226e-01  3.5836654222380721e-02  4.1138204435122901e-02  3.5428034066768435e-02  1.7410189631652609e-01  -4.1359738041827548e-02  -2.2256599198072397e-02  6.8388379598971857e-02  -4.0253026718497453e-02  5.8011198944569346e-02  6.0227492029521448e-02  8.0916191404966586e-02  -7.0619081319651519e-03  1.2327208232514092e-01  5.0116028672629473e-02  1.0100829718010745e-03  -3.1513505008642318e-03  6.8120965615888554e-02  1.9298625590622249e-02  6.6773439285849126e-02  3.6512322544328048e-02  2.9404066539645012e-02  1.5034946741821206e-01  5.2828622934722978e-02  1.4961408701897250e-01  6.0655063734569121e-03  2.0098320291024895e-02  -8.5726489304310122e-03  -5.3475363450210646e-03  1.1517988331404147e-01  -3.0624906227143353e-02  3.3170242726580298e-02  2.6305178874619833e-02  6.4502375976107973e-02  2.7985366723885116e-02  5.9365173222453230e-02  7.4622024050465127e-02  6.1517119494806205e-02  1.0031145616217463e-01  3.8318363628680005e-02  1.3083861531514931e-01  -2.5331736842398693e-02  6.9545624705756495e-02  7.3286953951492914e-02  5.9289594907297349e-02  9.7631713514433796e-02  1.3299386756204979e-02  -5.0059467544413726e-02  6.1349267563486673e-02  6.8867993114654552e-02  -1.5351126854069507e-02  5.3778085528361760e-02  -6.2903311441287371e-02  -3.2067376146891841e-02  -3.7323870047094788e-02  -7.3726424219538221e-03  1.0801618162135296e-01  -3.1668581521678375e-02  8.7694881253796000e-02  3.6077392939486252e-02  -6.7159534363309889e-02  2.6914774269957086e-03  2.1427311610863371e-02  4.2996667918965691e-02  6.8776967732093450e-02  -7.2346812573929289e-02  1.3286025313569195e-02  1.2599177526811825e-01  7.7106822123208879e-02  -3.1304830341690633e-02  4.8213961597746491e-02  3.2861020991167986e-02  1.1612350312622559e-01  9.6698546728161319e-02  9.8860686108201978e-02  -1.2938493733708598e-02  1.2014269979937871e-01  1.7048751821932617e-02  9.1625369615999375e-02  5.1293973890011085e-02  1.1757842223148553e-02  4.1507892457350495e-02  6.4792318696811443e-02  2.9487743497978509e-02  2.3950337103193244e-02  -1.8091442063088960e-02  7.7631290889076054e-02  -8.8022295056152354e-03  2.6664937430520400e-02  3.2929791217507658e-02  2.9744160731928242e-02  2.2222878799093751e-02  1.8459985043962568e-02  -1.9948043198282171e-02  1.3152042595041155e-01  5.0899879472506562e-03  6.9512606435053831e-02  7.2063923578561256e-02  1.0690880391215477e-02  5.9454965073509392e-02  3.1206481125370243e-02  1.1195972413786427e-01  -1.7479587322957017e-03  3.8630730460403905e-02  -7.1365997584997322e-03  5.6428434546046111e-02  8.8791288005974259e-02  5.7242718639293907e-02  -1.5242033995515991e-02  -6.1944082863244876e-02  1.5321219832441241e-01  5.6581789665365138e-02  4.0809741430678798e-03  6.1872337194454285e-02  -1.0242942549907728e-02  8.0948428714760004e-02  1.1647494305875044e-02  -4.1391442676863766e-04  2.8015078508927645e-02  1.6692888279381580e-02  3.1350491707508032e-02  4.2747167988745463e-02  5.6909317375588207e-02  -3.0978155485166071e-02  8.1859460468797246e-02  6.1050405036355150e-02  7.2572894639718208e-02  1.0461251299507474e-01  6.7582531251472733e-02  2.7812717710892991e-02  7.4523042640725526e-02  5.1081577370357081e-02  7.9284768818295534e-02  2.7213506717593011e-02  3.5692907315054999e-02  -1.4671399478861087e-03  1.4440875001875234e-01  -4.1781937157520765e-02  1.1278332439739557e-01  1.8972642847713980e-02  7.5768108736326112