<?xml version="1.0"?>
<VTKFile type="UnstructuredGrid"  version="0.1"  >
<UnstructuredGrid>
<Piece  NumberOfPoints="4820" NumberOfCells="9262">
<Points>
<DataArray  type="Float64"  NumberOfComponents="3"  format="ascii">0.004357787137382907 0.04980973490458728 0  3.061616997868383e-18 0.05 0  -0.004357787137382901 0.04980973490458728 0  -0.004357787137382912 -0.04980973490458728 0  -9.184850993605149e-18 -0.05 0  0.004357787137382894 -0.04980973490458728 0  -0.2 -0.2 0  0.55 -0.2 0  2 -0.2 0  2 0.21 0  0.55 0.21 0  -0.2 0.21 0  0.002180969358710071 0.04995241107951016 0  -0.002180969376377175 0.04995241107873878 0  -0.00218096936205605 -0.04995241107936408 0  0.002180969376762267 -0.04995241107872198 0  -0.00681459716460041 0.04953343583362881 0  -0.009254746165878699 0.04913603233275104 0  -0.01167226821331763 0.04861849601495686 0  -0.01406125270101674 0.04798209220613614 0  -0.01641585879600313 0.04722837685110179 0  -0.01873032971283131 0.04635919271135586 0  -0.02099900679895535 0.04537666485604058 0  -0.02321634335656028 0.04428319547131056 0  -0.02537691821523419 0.04308145798249308 0  -0.02747544897576464 0.04177439052314415 0  -0.0295068049360126 0.04036518874560236 0  -0.03146601963036187 0.03885729800979068 0  -0.03334830296690066 0.03725440496408185 0  -0.03514905295182857 0.03556042852089316 0  -0.03686386691867947 0.03377951029547187 0  -0.03848855232085789 0.03191600445301051 0  -0.04001913696023074 0.02997446708380811 0  -0.04145187870654155 0.02795964505672717 0  -0.04278327464009846 0.02587646442367869 0  -0.04401006963121561 0.02373001835346012 0  -0.04512926428658137 0.02152555469556806 0  -0.04613812228218922 0.0192684631528764 0  -0.04703417705848439 0.01696426209509693 0  -0.04781523785065199 0.0146185850644164 0  -0.04847939503850856 0.01223716702101564 0  -0.04902502482533359 0.009825830289366174 0  -0.04945079319725205 0.00739047036139188 0  -0.04975565919278197 0.004937041451287537 0  -0.04993887744399172 0.002471541954727039 0  -0.05000000000000002 -2.179027782864273e-10 0  -0.04993887742290181 -0.002471542380860383 0  -0.04975565915220143 -0.004937041860259632 0  -0.04945079313853181 -0.007390470754298181 0  -0.04902502474990915 -0.009825830665689136 0  -0.04847939494791073 -0.01223716737993267 0  -0.04781523774597484 -0.01461858540679994 0  -0.04703417694176702 -0.01696426241870103 0  -0.04613812215449838 -0.01926846345863071 0  -0.04512926414810409 -0.02152555498589172 0  -0.04401006948618459 -0.02373001862243695 0  -0.04278327448542859 -0.02587646467940464 0  -0.04145187854660255 -0.0279596452938465 0  -0.04001913680095092 -0.02997446729646378 0  -0.03848855215910903 -0.03191600464806871 0  -0.03686386675419343 -0.0337795104749769 0  -0.03514905278746659 -0.03556042868335375 0  -0.0333483028093871 -0.0372544051050802 0  -0.03146601947545011 -0.03885729813523576 0  -0.02950680478964417 -0.04036518885259716 0  -0.02747544883924331 -0.04177439061293563 0  -0.0253769180845661 -0.04308145805946247 0  -0.02321634324304243 -0.04428319553082456 0  -0.02099900669895044 -0.04537666490231995 0  -0.01873032963061061 -0.04635919274457518 0  -0.01641585872377311 -0.04722837687620784 0  -0.01406125264610136 -0.04798209222222922 0  -0.01167226817214395 -0.04861849602484179 0  -0.009254746140787012 -0.04913603233747704 0  -0.006814597153124481 -0.04953343583520761 0  0.006814597163087254 -0.04953343583383697 0  0.009254746162416328 -0.04913603233340317 0  0.01167226820749043 -0.04861849601635584 0  0.01406125269526824 -0.04798209220782076 0  0.01641585878869484 -0.04722837685364205 0  0.01873032970478165 -0.04635919271460813 0  0.02099900678940205 -0.04537666486046157 0  0.02321634334324823 -0.04428319547828967 0  0.02537691819928517 -0.04308145799188777 0  0.02747544895679411 -0.04177439053562125 0  0.02950680491571239 -0.04036518876044175 0  0.03146601960788315 -0.03885729802799359 0  0.03334830294823126 -0.03725440498079377 0  0.03514905293079007 -0.03556042854168828 0  0.03686386690162479 -0.03377951031408381 0  0.03848855230703181 -0.03191600446968382 0  0.04001913694627814 -0.02997446710243633 0  0.04145187869083342 -0.02795964508001545 0  0.04278327462632659 -0.02587646444644864 0  0.04401006962056583 -0.02373001837321138 0  0.04512926427712953 -0.02152555471538427 0  0.04613812227399118 -0.01926846317250652 0  0.04703417705106056 -0.01696426211567986 0  0.04781523784312168 -0.01461858508904696 0  0.04847939503319636 -0.01223716704206073 0  0.04902502482144694 -0.009825830308758294 0  0.04945079319422288 -0.007390470381660498 0  0.0497556591909245 -0.004937041470007301 0  0.04993887744294273 -0.002471541975922472 0  0.05000000000000002 1.960026680888904e-10 0  0.04993887742406512 0.002471542357355427 0  0.0497556591543939 0.004937041838163785 0  0.04945079314184119 0.007390470732154637 0  0.04902502475403982 0.009825830645079567 0  0.04847939495309415 0.01223716735939779 0  0.04781523775084436 0.01461858539087247 0  0.04703417694693356 0.01696426240437658 0  0.04613812215952091 0.01926846344660432 0  0.04512926415455419 0.02152555497236883 0  0.04401006949386337 0.02373001860819578 0  0.04278327450092428 0.0258764646537846 0  0.04145187856220046 0.02795964527072164 0  0.04001913681616228 0.02997446727615497 0  0.03848855217730672 0.03191600462612355 0  0.03686386677147228 0.03377951045612033 0  0.03514905280168957 0.03556042866929533 0  0.0333483028196165 0.03725440509592335 0  0.03146601948352148 0.03885729812869969 0  0.02950680480117144 0.04036518884417076 0  0.02747544884918156 0.04177439060639914 0  0.02537691809390653 0.04308145805396053 0  0.02321634324922249 0.04428319552758454 0  0.02099900670813883 0.04537666489806784 0  0.01873032963827596 0.04635919274147818 0  0.01641585873206496 0.04722837687332573 0  0.01406125264532184 0.04798209222245766 0  0.01167226817007835 0.04861849602533769 0  0.009254746139683721 0.04913603233768484 0  0.006814597151967234 0.04953343583536681 0  -0.1875196675247935 -0.2 0  -0.1748316574073939 -0.2 0  -0.1619325191073485 -0.2 0  -0.1488187266915765 -0.2 0  -0.1354867190390691 -0.2 0  -0.1219328601465505 -0.2 0  -0.1081534589822707 -0.2 0  -0.09414476550972861 -0.2 0  -0.07990295838040007 -0.2 0  -0.06542416251428446 -0.2 0  -0.05070442829752772 -0.2 0  -0.03573975778997357 -0.2 0  -0.02052606446908414 -0.2 0  -0.005059208186730002 -0.2 0  0.0106650220181323 -0.2 0  0.02665090828184707 -0.2 0  0.04290281009001662 -0.2 0  0.05942514756265038 -0.2 0  0.07622242703544463 -0.2 0  0.09329921759985482 -0.2 0  0.110660176225582 -0.2 0  0.1283100240439488 -0.2 0  0.146253576648871 -0.2 0  0.1644957213272042 -0.2 0  0.1830414174264912 -0.2 0  0.2018957247245375 -0.2 0  0.2210637776854531 -0.2 0  0.2405507899571802 -0.2 0  0.2603620802338072 -0.2 0  0.2805030369240936 -0.2 0  0.3009791461642926 -0.2 0  0.3217959913512258 -0.2 0  0.3429592352388189 -0.2 0  0.3644746444814039 -0.2 0  0.3863480802046066 -0.2 0  0.4085854997083186 -0.2 0  0.4311929582382759 -0.2 0  0.4541766169094176 -0.2 0  0.4775427325114808 -0.2 0  0.5012976686781503 -0.2 0  0.5254479007761028 -0.2 0  0.5750000000714078 -0.2 0  0.6000000001173931 -0.2 0  0.6250000002059986 -0.2 0  0.6500000002385247 -0.2 0  0.675000000336103 -0.2 0  0.7000000003686291 -0.2 0  0.7250000004542437 -0.2 0  0.7500000005062106 -0.2 0  0.7750000005716368 -0.2 0  0.8000000006490264 -0.2 0  0.8250000006890297 -0.2 0  0.8500000007910944 -0.2 0  0.8750000008565204 -0.2 0  0.9000000009518555 -0.2 0  0.9250000010408349 -0.2 0  0.9500000011343006 -0.2 0  0.9750000012251494 -0.2 0  1.000000001296183 -0.2 0  1.0250000013646 -0.2 0  1.050000001466665 -0.2 0  1.075000001557888 -0.2 0  1.100000001673038 -0.2 0  1.125000001762017 -0.2 0  1.150000001851744 -0.2 0  1.175000001947827 -0.2 0  1.200000002046153 -0.2 0  1.225000002155695 -0.2 0  1.25000000221813 -0.2 0  1.275000002244301 -0.2 0  1.300000002154947 -0.2 0  1.325000002108962 -0.2 0  1.350000002019609 -0.2 0  1.375000001973624 -0.2 0  1.400000001884271 -0.2 0  1.42500000182707 -0.2 0  1.450000001748932 -0.2 0  1.475000001659579 -0.2 0  1.500000001570226 -0.2 0  1.525000001480872 -0.2 0  1.550000001391519 -0.2 0  1.575000001345534 -0.2 0  1.60000000125618 -0.2 0  1.625000001210195 -0.2 0  1.650000001120842 -0.2 0  1.675000001066632 -0.2 0  1.700000000985504 -0.2 0  1.725000000905871 -0.2 0  1.750000000850165 -0.2 0  1.775000000760812 -0.2 0  1.800000000714827 -0.2 0  1.825000000625473 -0.2 0  1.85000000053612 -0.2 0  1.875000000446767 -0.2 0  1.900000000357413 -0.2 0  1.92500000026806 -0.2 0  1.950000000178707 -0.2 0  1.975000000089353 -0.2 0  2 -0.1758823529236379 0  2 -0.1517647057870068 0  2 -0.1276470586430415 0  2 -0.103529411528254 0  2 -0.07941176439513059 0  2 -0.05529411724717925 0  2 -0.03117647008918309 0  2 -0.007058822960843009 0  2 0.01705882406928105 0  2 0.0411764710640091 0  2 0.06529411804247409 0  2 0.08941176503720205 0  2 0.11352941203193 0  2 0.137647059026658 0  2 0.1617647060111818 0  2 0.185882353005272 0  1.974999999927471 0.21 0  1.949999999833257 0.21 0  1.924999999782412 0.21 0  1.899999999688198 0.21 0  1.874999999637353 0.21 0  1.849999999543139 0.21 0  1.824999999448926 0.21 0  1.799999999354712 0.21 0  1.774999999260499 0.21 0  1.749999999166286 0.21 0  1.724999999082914 0.21 0  1.699999998977859 0.21 0  1.674999998902712 0.21 0  1.649999998789432 0.21 0  1.624999998688863 0.21 0  1.599999998581938 0.21 0  1.574999998495201 0.21 0  1.549999998413699 0.21 0  1.524999998318364 0.21 0  1.499999998273501 0.21 0  1.474999998238357 0.21 0  1.449999998189755 0.21 0  1.424999998038714 0.21 0  1.399999997975905 0.21 0  1.37499999792992 0.21 0  1.349999997902628 0.21 0  1.324999997821126 0.21 0  1.299999997699994 0.21 0  1.274999997636438 0.21 0  1.249999997681301 0.21 0  1.224999997765794 0.21 0  1.199999997857764 0.21 0  1.174999997916835 0.21 0  1.149999998014039 0.21 0  1.124999998067875 0.21 0  1.09999999816508 0.21 0  1.074999998218916 0.21 0  1.049999998316121 0.21 0  1.02499999838865 0.21 0  0.999999998467161 0.21 0  0.9749999985209969 0.21 0 
[...]
<PointData  Scalars="pressure"> 
<DataArray  type="Float64"  Name="pressure"  format="ascii">-7.4040071380294437e-01  -7.7503777469237312e-01  -8.3794152943193634e-01  -8.6885815230908492e-01  -8.2230369384187130e-01  -7.2280638943008269e-01  5.0388221119939347e-01  4.3381964497023404e-02  0.0000000000000000e+00  0.0000000000000000e+00  4.2781322156427524e-03  4.7461411661319269e-01  -7.5457240574484696e-01  -8.0001558542462681e-01  -8.5665203582252691e-01  -7.7520236541545695e-01  -8.5929054398260762e-01  -8.7391750250952815e-01  -8.7665006630774223e-01  -8.6742233967642368e-01  -8.4417649745109891e-01  -8.0403177398114145e-01  -7.4951932947627997e-01  -6.8099017795205419e-01  -5.9422296651997630e-01  -4.9005883172722353e-01  -3.7144458750344733e-01  -2.4294166290485011e-01  -1.0211260533670828e-01  5.4645386591128713e-02  2.1441461882223153e-01  3.8473147172958910e-01  5.5602606423588019e-01  7.2566679044169635e-01  9.0041867246708052e-01  1.0631240387857352e+00  1.2257640103800127e+00  1.3767148344177584e+00  1.5134869651043976e+00  1.6397276787812833e+00  1.7473085457463000e+00  1.8369552929133002e+00  1.9083920164039949e+00  1.9606882633161857e+00  1.9875078659402647e+00  1.9945433352248232e+00  1.9797913729994698e+00  1.9420738671891051e+00  1.8841548091685438e+00  1.8047705557690314e+00  1.7079502115989713e+00  1.5951809429857096e+00  1.4638221740154358e+00  1.3229033937516215e+00  1.1681599712997592e+00  1.0043852141415017e+00  8.3625488999537623e-01  6.6315379005118813e-01  4.9277663484528156e-01  3.2308393953437609e-01  1.5210843625113527e-01  1.4151974918548315e-04  -1.5795362430253571e-01  -2.9373752270060738e-01  -4.2365208513157876e-01  -5.3460624044051974e-01  -6.3763056349963121e-01  -7.1979259775969218e-01  -7.8934291513578292e-01  -8.4334522048698912e-01  -8.7854512180690980e-01  -9.0275821809210111e-01  -9.1011388946355654e-01  -9.0989134290264084e-01  -8.9457578260500403e-01  -6.8709504421306777e-01  -6.4867825395885759e-01  -6.1113061586309669e-01  -5.7560728711106490e-01  -5.4258638837098039e-01  -5.1366102758654719e-01  -4.8748594844284571e-01  -4.6496667807591530e-01  -4.4529132085819212e-01  -4.2835093679579495e-01  -4.1415199919283235e-01  -4.0174222428178324e-01  -3.9179460087455575e-01  -3.8364578755289541e-01  -3.7661631580327931e-01  -3.7102786783701308e-01  -3.6619203452366605e-01  -3.6205172371570721e-01  -3.5813602731634275e-01  -3.5443505446951751e-01  -3.5096666583287051e-01  -3.4739923471627387e-01  -3.4385902408296048e-01  -3.4058699016233901e-01  -3.3738984294100666e-01  -3.3467089913698800e-01  -3.3257927909394935e-01  -3.3094322652918096e-01  -3.3032920293574514e-01  -3.3060521891712841e-01  -3.3172107662305345e-01  -3.3374757570055941e-01  -3.3655762625708480e-01  -3.3999945942041582e-01  -3.4403713109653261e-01  -3.4841553205891662e-01  -3.5295240487685253e-01  -3.5757559557751845e-01  -3.6208121603765120e-01  -3.6661855437229102e-01  -3.7097575449040771e-01  -3.7547077581060317e-01  -3.8014877229537952e-01  -3.8503203571531852e-01  -3.9099135443101707e-01  -3.9720466483495792e-01  -4.0557683176737047e-01  -4.1524618736777685e-01  -4.2656755461956858e-01  -4.4057579902053812e-01  -4.5679864597590331e-01  -4.7583107197296692e-01  -4.9779918393634542e-01  -5.2293275344834445e-01  -5.5148931243122890e-01  -5.8306932715484650e-01  -6.1753605021169189e-01  -6.5513971586098840e-01  -6.9325880073755519e-01  5.0321824830609174e-01  5.0227392559488249e-01  5.0019758625071942e-01  4.9716052008858402e-01  4.9237141525137990e-01  4.8550652597086641e-01  4.7572950233856359e-01  4.6264187010255770e-01  4.4504449689563630e-01  4.2273290195805524e-01  3.9494343643209706e-01  3.6063676619787532e-01  3.2207015402344508e-01  2.7749910157117835e-01  2.3042221705508489e-01  1.8190280791703062e-01  1.3232344579818639e-01  8.6792395504858469e-02  4.2830416013748124e-02  3.8187595255594958e-03  -2.9683420517583391e-02  -5.8146706276862296e-02  -8.0968596451899522e-02  -9.7497970454152511e-02  -1.0877048997322282e-01  -1.1460875473771341e-01  -1.1699093448426851e-01  -1.1611700067736321e-01  -1.1115088134666926e-01  -1.0636692095948726e-01  -9.9575038958792064e-02  -9.2871071852730164e-02  -8.5964139886236607e-02  -7.8994866086710497e-02  -7.1180279774084615e-02  -6.1898441897982617e-02  -4.9973442069871005e-02  -3.5317022742585726e-02  -1.7632989591657999e-02  2.8714288461920965e-03  2.3438869687343687e-02  6.0076429823788441e-02  7.0802243103684201e-02  7.6082402703644053e-02  7.5588186979588953e-02  7.0287663523451435e-02  6.2145706024570674e-02  5.3004363171692423e-02  4.5360440558314001e-02  4.0626448382732154e-02  3.9882147535741624e-02  4.4168991882537159e-02  5.2687275921064931e-02  6.4248276168198407e-02  7.8258237100148134e-02  9.2494227024620151e-02  1.0675464738235386e-01  1.1920777432373150e-01  1.2855751874909085e-01  1.3515248615063372e-01  1.3789400374442035e-01  1.3758562717097830e-01  1.3453329597717212e-01  1.3066628925571483e-01  1.2689515774304799e-01  1.2417849165570202e-01  1.2267897102300990e-01  1.2209533950204987e-01  1.2041206539835793e-01  1.1685271313314330e-01  1.0939204976756554e-01  9.8588703826001531e-02  8.2963789962614318e-02  6.5264142589234325e-02  4.7357697022736268e-02  3.1870571292564057e-02  2.2714599110740960e-02  2.0147111759569680e-02  2.3426041248715775e-02  3.0701241679127678e-02  3.9896073644027766e-02  4.6404728961971321e-02  4.9128359286339580e-02  4.6448017517487700e-02  3.5892886838173245e-02  1.8422519168750314e-02  -5.6951837684491510e-03  -3.1940628833801089e-02  -5.6655467007481926e-02  -7.6867808505847970e-02  -8.7839918409615594e-02  -8.5362730286652408e-02  -7.2598855649263161e-02  -5.1224709590184880e-02  -2.8098958807953534e-02  -9.2150859601601402e-03  2.7907430154665651e-03  5.3344171340766492e-03  0.0000000000000000e+00  0.0000000000000000e+00  0.0000000000000000e+00  0.0000000000000000e+00  0.0000000000000000e+00  0.0000000000000000e+00  0.0000000000000000e+00  0.0000000000000000e+00  0.0000000000000000e+00  0.0000000000000000e+00  0.0000000000000000e+00  0.0000000000000000e+00  0.0000000000000000e+00  0.0000000000000000e+00  0.0000000000000000e+00  0.0000000000000000e+00  2.6932049179489532e-03  1.0462716821889160e-02  2.5071422458487619e-02  4.2078854639158440e-02  5.8937452535179402e-02  7.2439130527041332e-02  8.0197925502911077e-02  8.2483949092294742e-02  7.8765347253531501e-02  7.0253415316949258e-02  5.8893552755039387e-02  4.4825201490302273e-02  2.9651490038098794e-02  1.6626237566808845e-02  6.9351885043967051e-03  2.7836533372609415e-03  2.3703760605249149e-03  7.2528238030484639e-03  1.4841452503632009e-02  2.2945347215910048e-02  3.0759666292186745e-02  3.8211736727997644e-02  4.5840757365820842e-02  5.4517070405339436e-02  6.5218998329074351e-02  7.7422820182397614e-02  8.9842913583245920e-02  1.0161211282385796e-01  1.1112989410618114e-01  1.1857408344572685e-01  1.2409825496126653e-01  1.2714289541264662e-01  1.2850716439657500e-01  1.2832388402658979e-01  1.2683488497889825e-01  1.2368973435309935e-01  1.1942159078780361e-01  1.1413983018075717e-01  1.0839548770557457e-01  1.0287373730701070e-01  9.8233678218153722e-02  9.4787982666159593e-02  9.2622541940339018e-02  9.1657526663132885e-02  9.1438334727379986e-02  9.0710981705431210e-02  8.8921264851598264e-02  8.4905838065996012e-02  7.7903158162107994e-02  6.8119358065008462e-02  5.5738787753259703e-02  4.1643545317108489e-02  2.7336645753240262e-02  1.4459372174273604e-02  4.8924740993376162e-03  -6.3728567858465989e-05  -4.4982353644640284e-04  1.1422720351048798e-02  1.7802371367531628e-02  2.3299570186326814e-02  2.4445804146408165e-02  2.1597747597946693e-02  1.4553398225272414e-02  3.8867495547851381e-03  -9.9732588616760504e-03  -2.5724373035835951e-02  -4.2668410110026506e-02  -5.9341237374971489e-02  -7.4381840385371836e-02  -8.7306283405275839e-02  -9.6964970721558949e-02  -1.0386107828107877e-01  -1.0354580480492483e-01  -1.0017129870989082e-01  -8.8524003064821555e-02  -7.4100575268701022e-02  -5.1156268396063721e-02  -2.3049269216587041e-02  8.8412569464235945e-03  4.7889544326286580e-02  8.8872418752385815e-02  1.3281862067241845e-01  1.7812006442912809e-01  2.2284875085236341e-01  2.6568551005516017e-01  3.0587105986649593e-01  3.4151773123714163e-01  3.7185142966237056e-01  3.9801849943166656e-01  4.1869899275429051e-01  4.3477857700254796e-01  4.4750040947871761e-01  4.5664395284312581e-01  4.6336263695033891e-01  4.6799997771551732e-01  4.7105431886399224e-01  4.7290358086409651e-01  4.7394451790380249e-01  4.7446573574922657e-01  4.7543459264200838e-01  4.7898915228581213e-01  4.8631695442364198e-01  4.9829235133786121e-01  5.1574454019672156e-01  5.3878123091199970e-01  5.6725994140003888e-01  6.0061559261432840e-01  6.3794750287701185e-01  6.7711347080892037e-01  7.1656424438954625e-01  7.5339047039568230e-01  7.8469972703656587e-01  8.0915231737937243e-01  8.2365440594240513e-01  8.2759761142183008e-01  8.2016215161661499e-01  8.0249681334995615e-01  7.7582059176936646e-01  7.4350868086986566e-01  7.0692005180179607e-01  6.6912828054982065e-01  6.3243670021313481e-01  5.9908364548731352e-01  5.7006695867912605e-01  5.4647464142144675e-01  5.2851826815739278e-01  5.1597167762332985e-01  5.0859627849237588e-01  5.0465434306173318e-01  5.0376236062897284e-01  4.3104176215672328e-02  4.6625355100168353e-02  5.6830348907351030e-02  7.4434441779539784e-02  9.9847443219812815e-02  1.2738958814679480e-01  1.5347169017022450e-01  1.4663850302142309e-01  1.3280339175932743e-01  1.1139842994919054e-01  7.8650799844042801e-02  4.4892834780776235e-02  1.9056747035736819e-02  5.6648306026151523e-03  3.2014502329603613e-03  4.6712724432983821e-03  7.9332931944706073e-02  -3.7292205419751125e-02  7.5312488398445079e-02  1.0226129559885465e-01  2.0622471541906020e-02  9.5065677501631571e-02  -1.9138786767910525e-02  4.9086639710900860e-02  3.0783089185657357e-02  9.1041002648909866e-02  5.7373008171905951e-02  2.1428106170064052e-02  1.2660599518209098e-01  1.3710616336519124e-01  1.1966101977959466e-01  1.1470580556906521e-01  -8.9844054654489455e-02  4.4649632523568336e-02  8.6653618035956781e-02  7.0729658466051198e-02  7.0236720198067787e-02  5.0526381194081656e-02  5.2095317493252705e-02  -1.4844622939004879e-02  1.0929411188349958e-01  9.5564617987609110e-02  1.1729309011268305e-01  1.2627125987240539e-01  7.9286838077824204e-02  -1.2862196701612469e-01  8.9335493959931345e-02  3.8675098962580680e-02  1.0751977497849582e-01  -1.7883532452439784e-02  1.1912975707984261e-01  1.0938637128729635e-01  7.8677321984501628e-02  1.9606905223488243e-02  2.2210924633487377e-02  5.9039936741379959e-02  -2.5121621221535859e-03  2.0899738796874758e-03  1.1531146886886172e-01  9.8275650562622774e-02  1.1184663281700388e-02  2.5000847418314487e-02  -1.2806066976809212e-03  2.7196507081205228e-03  8.7813693110793040e-02  2.1413031224627080e-02  7.1529705595655330e-02  1.5640175803323490e-02  4.0575982667507601e-02  9.1149950631840393e-02  1.3852551217896919e-01  1.2555744735380719e-01  1.2324288330592931e-01  1.0544956208830863e-01  1.2179465784883863e-01  1.3542955248919861e-01  7.1041499828375640e-02  -2.5758123588018867e-02  9.2488006794930452e-02  -2.3546488540065719e-02  3.4621221841474967e-02  5.6744671666118948e-02  1.1021880202478283e-01  -1.5324248148511316e-02  9.0299627108048092e-02  8.9260500997341480e-02  8.7431875774306014e-02  1.1424338334174534e-01  1.0368098798817985e-01  4.5548552463004370e-02  -1.0300987404653086e-01  6.1926689388711827e-02  8.6792789984523125e-02  4.1800706522394655e-02  1.2356296651860191e-01  1.1528047266442784e-01  1.0954327538096081e-01  1.2179595566890912e-01  1.3784333551563836e-02  1.1159657416854782e-01  6.8326511786305263e-02  -7.6670801241323803e-03  8.6547481080438290e-02  -1.0217426261129355e-01  6.0796334653948840e-02  8.3001801728511501e-02  2.8010714309447290e-02  7.5380572034397214e-02  6.7345022799411403e-02  2.6098946882288289e-02  2.8167719058617185e-02  -9.0185504979645018e-04  -1.5779455617143293e-01  9.3835896479918121e-02  6.6297802887517687e-02  1.1782982091695671e-01  5.5243837266254155e-02  -6.5365310588547144e-03  8.1630376720133790e-02  7.0912784146977617e-02  1.0885178011880468e-01  8.4461987352755258e-02  3.3116304798135557e-02  -6.4651124622478878e-02  1.0387530682749363e-01  9.2226119469546730e-02  1.0231298081116580e-01  1.2470722089725893e-01  1.2888437147034629e-01  8.1966479452592333e-02  -8.3599444622138627e-02  8.1375875222314820e-02  3.5288883001720200e-02  7.8228346871863308e-02  1.3290725149992428e-02  1.2014439863701563e-01  4.3125482367045921e-02  3.5581639972930901e-02  1.6641843410015032e-02  -4.3332682449160560e-02  5.5106018904757186e-02  7.8714086352015100e-02  1.1651564986827613e-01  1.2100948029257499e-01  1.1529103207386612e-01  1.2614642767754775e-01  -1.6248603109942031e-01  3.0114119199926716e-02  2.4769468611708010e-02  2.7729779627152024e-02  1.1564332187417592e-01  4.9503165522677087e-03  7.4676912555019195e-02  4.0550025449161885e-02  9.0007611168768833e-02  1.1551862261757730e-01  3.2221255733841984e-02  9.6704298673866665e-02  1.8325437175406821e-02  -1.0851095568741115e-02  6.3249439258364931e-02  -1.1485393318148488e-02  1.4006605654072568e-01  5.7891385679181406e-03  6.4592087013526076e-02  1.0072944352178050e-01  -5.7957061862732494e-02  1.1695714599585194e-01  1.2633955766814089e-01  4.5300266654719402e-02  3.9343638766715885e-02  5.4535691301485459e-02  3.9147889993830509e-02  9.1924228317094167e-02  1.2965273461647516e-02  3.2670999789119984e-02  1.3578238732162221e-01  7.3504034286468400e-02  1.2441211719884306e-01  -5.1751567980442299e-03  5.1566797351230750e-02  1.2749113458525851e-01  5.1224760542659536e-02  9.2352026279997584e-02  9.8650786854833791e-02  1.0081626974136229e-01  1.2156805969987640e-01  1.2154975728634175e-01  1.0585182915293406e-01  1.2638290262917648e-01  1.0623083863759133e-01  5.3188447692760848e-02  4.5843945262442801e-02  -5.3398903084345434e-03  4.7439942252929315e-02  1.9019914747698024e-02  -4.1803262610297254e-03  9.4391395253034319e-03  7.0792893247156929e-02  2.8504196786644795e-03  7.2853976419566771e-02  -1.3270813089771150e-02  1.0744138040753665e-01  1.0246385192016756e-01  2.4251228904959326e-02  8.6466972349358490e-02  1.0536423875960782e-01  8.7121536117598028e-02  -1.6825541892713992e-02  6.7070593058009984e-02  1.2122019393330934e-01  -1.8768505903893715e-02  1.3201728041772007e-01  1.4262770516658990e-01  3.2775160421460586e-02  1.1398395501836937e-01  -7.9809365328391141e-03  4.0386000485805332e-02  -9.9076154785114418e-02  4.7481770721938696e-02  6.3082511724709259e-02  8.7748910300175495e-02  2.2122875223297478e-02  7.5866339122437329e-02  9.1492833486094133e-02  1.2592152866886802e-01  -8.3919849635810409e-02  1.2045043706759601e-02  5.0164489492031498e-02  1.1695966482611740e-01  9.3199245458006813e-02  -3.1801848760240480e-03  9.3648219039147287e-02  -2.5822596642646849e-02  2.4725446891989720e-02  -1.2693749698698398e-02  3.1040008304064715e-02  9.6396120823937073e-02  1.2466534364533970e-01  6.5390860301823867e-02  6.7741587039542028e-02  1.1505537492799474e-01  2.0912228861208505e-02  9.9591984118998875e-02  7.1523955155505331e-02  1.2397516693745349e-01  5.1002682129912963e-02  3.5688856508223673e-03  1.0290565354457273e-01  7.9837748468189931e-02  8.0931597416657036e-02  -7.0973110761962582e-02  8.0806688976579069e-02  2.5508764555605377e-02  7.0059653236759903e-02  9.1226362168427028e-02  8.3171263478052815e-02  8.5821102372930613e-02  1.6438142728795280e-02  8.9993128328633792e-02  8.2880973861193339e-03  3.6071808510393715e-03  -6.9763566864580365e-02  1.2625125162182993e-01  1.3209635678942686e-01  9.1910187811445915e-02  1.9961922789088298e-02  9.4318990549346005e-02  9.7804585519390405e-02  2.3396739808414200e-02  6.4530410494417434e-02  8.8545394326651664e-02  3.8317188853261255e-02  -4.3339379575021625e-02  6.6428461666859836e-03  4.7100384342967420e-02  2.3774655411914609e-02  3.0391296290598643e-03  -1.1300921051439615e-02  8.0348079758705962e-02  2.8887405588647046e-02  1.2579882096519240e-01  1.3561029931713885e-02  1.0876336021781650e-01  1.2169927023253879e-01  8.1204043754334571e-02  8.9451109147218433e-02  9.7416794042208016e-02  4.1067718243366351e-02  -1.4983797210742156e-01  1.0923851230873326e-01  8.6480161032654171e-02  1.1748794167734493e-01  8.0969327073761116e-02  2.9231586135511824e-02  1.2599096392345077e-01  1.2145762453517796e-01  9.7119144200104882e-02  -3.1154040045043616e-02  1.1061704424087695e-01  1.3615905052722904e-01  1.1959819848190500e-01  1.2296107518066371e-01  2.1109094674268334e-02  7.6670555483164135e-02  -2.9092169619064859e-03  -6.3715714979416535e-03  1.1932653690361737e-01  -7.4208532676777669e-03  1.0728693745137907e-01  7.1673684285017733e-02  1.0989111462148025e-01  1.2185261922625978e-02  3.8766561082197330e-02  -7.8651058151080144e-02  6.4826870928687302e-02  7.6198332188098045e-02  8.5754478563047118e-02  2.6527213250833390e-02  6.4220518643626226e-02  1.2747039257854448e-01  8.0606104501112275e-02  8.9279113071574212e-02  3.1501461774270066e-02  6.6633128294282390e-02  -1.2729299189282797e-01  9.3417150727722859e-02  4.3474460303608256e-02  -1.1886128506719620e-01  1.2152915939812005e-01  1.1482945812262153e-01  9.1349214446058535e-02  1.2456479611676279e-01  1.0209405011890650e-01  1.0671850922593996e-01  4.4077589083521398e-02  9.2268278220642319e-02  7.5912763354983370e-02  -7.4166313226887125e-03  5.3185579457252379e-02  1.1361339287573453e-01  -2.5269797247557731e-02  -1.6462273026699063e-02  -8.2892646569379094e-04  1.1945321672550484e-01  1.2452198005887502e-01  2.1909884494748778e-02  -1.3461655743862017e-01  1.0961529537656703e-01  6.5972460053120782e-02  7.4227389630992138e-02  3.5926486413463500e-02  8.3629248169327791e-02  1.1270125758717766e-02  -2.4645843222688063e-02  1.2589811304155205e-01  1.2975477388282969e-01  7.6664557122120711e-02  8.0433218524430625e-02  1.1929529774312927e-01  1.0998651893449106e-01  4.7628196423602123e-02  4.7829488541952972e-02  1.1041067900119304e-01  4.1883626288979132e-02  8.9312753764122968e-02  -6.1493152243776404e-03  -1.3880792390177601e-02  5.5034351279391880e-02  3.3082601174143356e-02  3.5801869870419133e-02  6.6325018320278956e-02  1.3184254786542776e-01  1.0466752214276158e-01  1.2123684501637054e-01  5.5205222064046960e-02  1.3753656469368428e-01  1.1259432233298414e-01  4.1932759544344625e-02  3.5539380615958877e-02  9.2031709387847896e-02  1.2310224495453310e-01  -2.4416666092245933e-02  1.0041561589681196e-01  1.0230883242257782e-01  -7.6549268218591288e-03  4.6363707982750746e-02  9.2331309389821883e-02  2.5902233650586848e-02  1.2307582016246285e-01  6.5742861825777210e-02  9.6446073069641314e-02  5.3904131322663064e-02  -8.5032990187819905e-03  7.0599387292490198e-02  3.6872786288684775e-02  1.6856059894359877e-02  1.1379068565834481e-01  1.5754405144211342e-04  1.2141956304071044e-01  2.5198166607206349e-02  1.3659365765564080e-01  2.5409207102589204e-02  6.6486618036952161e-02  5.8202932108405964e-02  4.7069534657384761e-02  1.1358751513515332e-01  9.5357748023302741e-02  -1.7005893532387292e-01  8.9627435450130619e-02  8.5103343288896613e-02  1.2849086522658215e-01  9.5308718406594453e-02  6.3439449123664407e-02  -6.7527872760285816e-03  1.2410033270542843e-01  2.6067103070913618e-03  7.5298434120150415e-03  3.0047694865776610e-02  4.6797905945466317e-02  -1.2498860767865867e-02  1.1144291649911434e-01  9.3362243101519360e-03  4.3839690537533484e-02  -2.2575777946429121e-02  9.0044224276425736e-02  7.0279134058723200e-02  1.1451862964655887e-01  8.2159439092986508e-02  1.1874190402610342e-01  4.6463905922867178e-02  1.0397760355230880e-01  9.1384909935147349e-02  4.1776322527974412e-02  8.2877758543676183e-02  -8.7665888874449788e-02  7.3304129027229825e-02  -7.4425697667975460e-03  9.0403127160722879e-02  1.3407014472643712e-02  5.4754909599051230e-02  8.3257563936764437e-02  3.8866408418390085e-02