<?xml version="1.0"?>
<VTKFile type="UnstructuredGrid"  version="0.1"  >
<UnstructuredGrid>
<Piece  NumberOfPoints="4820" NumberOfCells="9262">
<Points>
<DataArray  type="Float64"  NumberOfComponents="3"  format="ascii">0.004357787137382907 0.04980973490458728 0  3.061616997868383e-18 0.05 0  -0.004357787137382901 0.04980973490458728 0  -0.004357787137382912 -0.04980973490458728 0  -9.184850993605149e-18 -0.05 0  0.004357787137382894 -0.04980973490458728 0  -0.2 -0.2 0  0.55 -0.2 0  2 -0.2 0  2 0.21 0  0.55 0.21 0  -0.2 0.21 0  0.002180969358710071 0.04995241107951016 0  -0.002180969376377175 0.04995241107873878 0  -0.00218096936205605 -0.04995241107936408 0  0.002180969376762267 -0.04995241107872198 0  -0.00681459716460041 0.04953343583362881 0  -0.009254746165878699 0.04913603233275104 0  -0.01167226821331763 0.04861849601495686 0  -0.01406125270101674 0.04798209220613614 0  -0.01641585879600313 0.04722837685110179 0  -0.01873032971283131 0.04635919271135586 0  -0.02099900679895535 0.04537666485604058 0  -0.02321634335656028 0.04428319547131056 0  -0.02537691821523419 0.04308145798249308 0  -0.02747544897576464 0.04177439052314415 0  -0.0295068049360126 0.04036518874560236 0  -0.03146601963036187 0.03885729800979068 0  -0.03334830296690066 0.03725440496408185 0  -0.03514905295182857 0.03556042852089316 0  -0.03686386691867947 0.03377951029547187 0  -0.03848855232085789 0.03191600445301051 0  -0.04001913696023074 0.02997446708380811 0  -0.04145187870654155 0.02795964505672717 0  -0.04278327464009846 0.02587646442367869 0  -0.04401006963121561 0.02373001835346012 0  -0.04512926428658137 0.02152555469556806 0  -0.04613812228218922 0.0192684631528764 0  -0.04703417705848439 0.01696426209509693 0  -0.04781523785065199 0.0146185850644164 0  -0.04847939503850856 0.01223716702101564 0  -0.04902502482533359 0.009825830289366174 0  -0.04945079319725205 0.00739047036139188 0  -0.04975565919278197 0.004937041451287537 0  -0.04993887744399172 0.002471541954727039 0  -0.05000000000000002 -2.179027782864273e-10 0  -0.04993887742290181 -0.002471542380860383 0  -0.04975565915220143 -0.004937041860259632 0  -0.04945079313853181 -0.007390470754298181 0  -0.04902502474990915 -0.009825830665689136 0  -0.04847939494791073 -0.01223716737993267 0  -0.04781523774597484 -0.01461858540679994 0  -0.04703417694176702 -0.01696426241870103 0  -0.04613812215449838 -0.01926846345863071 0  -0.04512926414810409 -0.02152555498589172 0  -0.04401006948618459 -0.02373001862243695 0  -0.04278327448542859 -0.02587646467940464 0  -0.04145187854660255 -0.0279596452938465 0  -0.04001913680095092 -0.02997446729646378 0  -0.03848855215910903 -0.03191600464806871 0  -0.03686386675419343 -0.0337795104749769 0  -0.03514905278746659 -0.03556042868335375 0  -0.0333483028093871 -0.0372544051050802 0  -0.03146601947545011 -0.03885729813523576 0  -0.02950680478964417 -0.04036518885259716 0  -0.02747544883924331 -0.04177439061293563 0  -0.0253769180845661 -0.04308145805946247 0  -0.02321634324304243 -0.04428319553082456 0  -0.02099900669895044 -0.04537666490231995 0  -0.01873032963061061 -0.04635919274457518 0  -0.01641585872377311 -0.04722837687620784 0  -0.01406125264610136 -0.04798209222222922 0  -0.01167226817214395 -0.04861849602484179 0  -0.009254746140787012 -0.04913603233747704 0  -0.006814597153124481 -0.04953343583520761 0  0.006814597163087254 -0.04953343583383697 0  0.009254746162416328 -0.04913603233340317 0  0.01167226820749043 -0.04861849601635584 0  0.01406125269526824 -0.04798209220782076 0  0.01641585878869484 -0.04722837685364205 0  0.01873032970478165 -0.04635919271460813 0  0.02099900678940205 -0.04537666486046157 0  0.02321634334324823 -0.04428319547828967 0  0.02537691819928517 -0.04308145799188777 0  0.02747544895679411 -0.04177439053562125 0  0.02950680491571239 -0.04036518876044175 0  0.03146601960788315 -0.03885729802799359 0  0.03334830294823126 -0.03725440498079377 0  0.03514905293079007 -0.03556042854168828 0  0.03686386690162479 -0.03377951031408381 0  0.03848855230703181 -0.03191600446968382 0  0.04001913694627814 -0.02997446710243633 0  0.04145187869083342 -0.02795964508001545 0  0.04278327462632659 -0.02587646444644864 0  0.04401006962056583 -0.02373001837321138 0  0.04512926427712953 -0.02152555471538427 0  0.04613812227399118 -0.01926846317250652 0  0.04703417705106056 -0.01696426211567986 0  0.04781523784312168 -0.01461858508904696 0  0.04847939503319636 -0.01223716704206073 0  0.04902502482144694 -0.009825830308758294 0  0.04945079319422288 -0.007390470381660498 0  0.0497556591909245 -0.004937041470007301 0  0.04993887744294273 -0.002471541975922472 0  0.05000000000000002 1.960026680888904e-10 0  0.04993887742406512 0.002471542357355427 0  0.0497556591543939 0.004937041838163785 0  0.04945079314184119 0.007390470732154637 0  0.04902502475403982 0.009825830645079567 0  0.04847939495309415 0.01223716735939779 0  0.04781523775084436 0.01461858539087247 0  0.04703417694693356 0.01696426240437658 0  0.04613812215952091 0.01926846344660432 0  0.04512926415455419 0.02152555497236883 0  0.04401006949386337 0.02373001860819578 0  0.04278327450092428 0.0258764646537846 0  0.04145187856220046 0.02795964527072164 0  0.04001913681616228 0.02997446727615497 0  0.03848855217730672 0.03191600462612355 0  0.03686386677147228 0.03377951045612033 0  0.03514905280168957 0.03556042866929533 0  0.0333483028196165 0.03725440509592335 0  0.03146601948352148 0.03885729812869969 0  0.02950680480117144 0.04036518884417076 0  0.02747544884918156 0.04177439060639914 0  0.02537691809390653 0.04308145805396053 0  0.02321634324922249 0.04428319552758454 0  0.02099900670813883 0.04537666489806784 0  0.01873032963827596 0.04635919274147818 0  0.01641585873206496 0.04722837687332573 0  0.01406125264532184 0.04798209222245766 0  0.01167226817007835 0.04861849602533769 0  0.009254746139683721 0.04913603233768484 0  0.006814597151967234 0.04953343583536681 0  -0.1875196675247935 -0.2 0  -0.1748316574073939 -0.2 0  -0.1619325191073485 -0.2 0  -0.1488187266915765 -0.2 0  -0.1354867190390691 -0.2 0  -0.1219328601465505 -0.2 0  -0.1081534589822707 -0.2 0  -0.09414476550972861 -0.2 0  -0.07990295838040007 -0.2 0  -0.06542416251428446 -0.2 0  -0.05070442829752772 -0.2 0  -0.03573975778997357 -0.2 0  -0.02052606446908414 -0.2 0  -0.005059208186730002 -0.2 0  0.0106650220181323 -0.2 0  0.02665090828184707 -0.2 0  0.04290281009001662 -0.2 0  0.05942514756265038 -0.2 0  0.07622242703544463 -0.2 0  0.09329921759985482 -0.2 0  0.110660176225582 -0.2 0  0.1283100240439488 -0.2 0  0.146253576648871 -0.2 0  0.1644957213272042 -0.2 0  0.1830414174264912 -0.2 0  0.2018957247245375 -0.2 0  0.2210637776854531 -0.2 0  0.2405507899571802 -0.2 0  0.2603620802338072 -0.2 0  0.2805030369240936 -0.2 0  0.3009791461642926 -0.2 0  0.3217959913512258 -0.2 0  0.3429592352388189 -0.2 0  0.3644746444814039 -0.2 0  0.3863480802046066 -0.2 0  0.4085854997083186 -0.2 0  0.4311929582382759 -0.2 0  0.4541766169094176 -0.2 0  0.4775427325114808 -0.2 0  0.5012976686781503 -0.2 0  0.5254479007761028 -0.2 0  0.5750000000714078 -0.2 0  0.6000000001173931 -0.2 0  0.6250000002059986 -0.2 0  0.6500000002385247 -0.2 0  0.675000000336103 -0.2 0  0.7000000003686291 -0.2 0  0.7250000004542437 -0.2 0  0.7500000005062106 -0.2 0  0.7750000005716368 -0.2 0  0.8000000006490264 -0.2 0  0.8250000006890297 -0.2 0  0.8500000007910944 -0.2 0  0.8750000008565204 -0.2 0  0.9000000009518555 -0.2 0  0.9250000010408349 -0.2 0  0.9500000011343006 -0.2 0  0.9750000012251494 -0.2 0  1.000000001296183 -0.2 0  1.0250000013646 -0.2 0  1.050000001466665 -0.2 0  1.075000001557888 -0.2 0  1.100000001673038 -0.2 0  1.125000001762017 -0.2 0  1.150000001851744 -0.2 0  1.175000001947827 -0.2 0  1.200000002046153 -0.2 0  1.225000002155695 -0.2 0  1.25000000221813 -0.2 0  1.275000002244301 -0.2 0  1.300000002154947 -0.2 0  1.325000002108962 -0.2 0  1.350000002019609 -0.2 0  1.375000001973624 -0.2 0  1.400000001884271 -0.2 0  1.42500000182707 -0.2 0  1.450000001748932 -0.2 0  1.475000001659579 -0.2 0  1.500000001570226 -0.2 0  1.525000001480872 -0.2 0  1.550000001391519 -0.2 0  1.575000001345534 -0.2 0  1.60000000125618 -0.2 0  1.625000001210195 -0.2 0  1.650000001120842 -0.2 0  1.675000001066632 -0.2 0  1.700000000985504 -0.2 0  1.725000000905871 -0.2 0  1.750000000850165 -0.2 0  1.775000000760812 -0.2 0  1.800000000714827 -0.2 0  1.825000000625473 -0.2 0  1.85000000053612 -0.2 0  1.875000000446767 -0.2 0  1.900000000357413 -0.2 0  1.92500000026806 -0.2 0  1.950000000178707 -0.2 0  1.975000000089353 -0.2 0  2 -0.1758823529236379 0  2 -0.1517647057870068 0  2 -0.1276470586430415 0  2 -0.103529411528254 0  2 -0.07941176439513059 0  2 -0.05529411724717925 0  2 -0.03117647008918309 0  2 -0.007058822960843009 0  2 0.01705882406928105 0  2 0.0411764710640091 0  2 0.06529411804247409 0  2 0.08941176503720205 0  2 0.11352941203193 0  2 0.137647059026658 0  2 0.1617647060111818 0  2 0.185882353005272 0  1.974999999927471 0.21 0  1.949999999833257 0.21 0  1.924999999782412 0.21 0  1.899999999688198 0.21 0  1.874999999637353 0.21 0  1.849999999543139 0.21 0  1.824999999448926 0.21 0  1.799999999354712 0.21 0  1.774999999260499 0.21 0  1.749999999166286 0.21 0  1.724999999082914 0.21 0  1.699999998977859 0.21 0  1.674999998902712 0.21 0  1.649999998789432 0.21 0  1.624999998688863 0.21 0  1.599999998581938 0.21 0  1.574999998495201 0.21 0  1.549999998413699 0.21 0  1.524999998318364 0.21 0  1.499999998273501 0.21 0  1.474999998238357 0.21 0  1.449999998189755 0.21 0  1.424999998038714 0.21 0  1.399999997975905 0.21 0  1.37499999792992 0.21 0  1.349999997902628 0.21 0  1.324999997821126 0.21 0  1.299999997699994 0.21 0  1.274999997636438 0.21 0  1.249999997681301 0.21 0  1.224999997765794 0.21 0  1.199999997857764 0.21 0  1.174999997916835 0.21 0  1.149999998014039 0.21 0  1.124999998067875 0.21 0  1.09999999816508 0.21 0  1.074999998218916 0.21 0  1.049999998316121 0.21 0  1.02499999838865 0.21 0  0.999999998467161 0.21 0  0.9749999985209969 0.21 0 
[...]
<PointData  Scalars="pressure"> 
<DataArray  type="Float64"  Name="pressure"  format="ascii">-8.0076655852411527e-01  -5.9361369728518165e-01  -7.2161663245806795e-01  -1.1023963894979294e+00  -1.1242517575133624e+00  -7.5677691523100499e-01  4.4143201186990794e-01  2.6078629886287265e-02  0.0000000000000000e+00  0.0000000000000000e+00  6.7435255470331065e-02  4.9111640493243980e-01  -6.7509578516867430e-01  -5.8061296767043225e-01  -1.2066731972003566e+00  -9.6614713628633131e-01  -7.1503761105651664e-01  -7.3469168457190104e-01  -7.4367050342559271e-01  -7.4034113277391689e-01  -7.2379915545627982e-01  -6.9015970062572940e-01  -6.4211603277708695e-01  -5.8000703484925009e-01  -4.9960988203908102e-01  -4.0176352522968783e-01  -2.8941670070796222e-01  -1.6662161757754437e-01  -3.1585122819796856e-02  1.1930156004982528e-01  2.7363110628482645e-01  4.3828353014025434e-01  6.0421223850139716e-01  7.6849203082690010e-01  9.3773721955069422e-01  1.0951642448487338e+00  1.2522391855946235e+00  1.3976695804281614e+00  1.5289234579707698e+00  1.6494907665717793e+00  1.7513597841451669e+00  1.8352867350740703e+00  1.9008102481623463e+00  1.9471666203185387e+00  1.9680461101865219e+00  1.9690463595660812e+00  1.9482412418068096e+00  1.9044161980020975e+00  1.8403936866700104e+00  1.7548289080891755e+00  1.6518540763102174e+00  1.5329783062999069e+00  1.3953647622180336e+00  1.2482454073406677e+00  1.0871510627051622e+00  9.1687229975982454e-01  7.4216968441451170e-01  5.6233284168849551e-01  3.8510731453783709e-01  2.0838804033963670e-01  2.9700950730389617e-02  -1.2922922954663965e-01  -2.9607355097419608e-01  -4.3987601628935596e-01  -5.7851067073765017e-01  -6.9840361502161585e-01  -8.1097642175363738e-01  -9.0268335655312038e-01  -9.8236775419550204e-01  -1.0464306900901466e+00  -1.0918519497962160e+00  -1.1262839898567882e+00  -1.1434017155172937e+00  -1.1532891759681072e+00  -1.1460050755784685e+00  -7.7540432759713873e-01  -7.4432448874642032e-01  -7.1006063291127819e-01  -6.7555864538688437e-01  -6.4225761617435573e-01  -6.1210254508024509e-01  -5.8430854884191752e-01  -5.5996041816333575e-01  -5.3830517244969633e-01  -5.1952013363351712e-01  -5.0344936939034435e-01  -4.8928788050452127e-01  -4.7766605925351047e-01  -4.6788551397781664e-01  -4.5923909282554704e-01  -4.5201245138106738e-01  -4.4545310078238948e-01  -4.3945894716718525e-01  -4.3347272522445057e-01  -4.2742380244859574e-01  -4.2131280977110230e-01  -4.1472603655603490e-01  -4.0774839741597962e-01  -4.0071480522253855e-01  -3.9352201618265409e-01  -3.8665018308927046e-01  -3.8027888457391296e-01  -3.7443678135296754e-01  -3.6990705555149561e-01  -3.6656521329633779e-01  -3.6438737652446362e-01  -3.6352276749018564e-01  -3.6377364381695920e-01  -3.6492424881478502e-01  -3.6684463386286048e-01  -3.6916057402877772e-01  -3.7157702702243878e-01  -3.7398250138691413e-01  -3.7613801886363712e-01  -3.7812305099447635e-01  -3.7984410683656805e-01  -3.8166022871806460e-01  -3.8367691889504763e-01  -3.8602918999714614e-01  -3.8967136536705543e-01  -3.9384074871176178e-01  -4.0071429035018269e-01  -4.0900372019115372e-01  -4.1928092888992863e-01  -4.3240383818000033e-01  -4.4779345990314218e-01  -4.6610907864094869e-01  -4.8736491381095148e-01  -5.1204813912759084e-01  -5.4043216013500339e-01  -5.7239986729739212e-01  -6.0864727771660909e-01  -6.5021287157638785e-01  -6.9397693026364904e-01  4.4079351389838095e-01  4.3986870697500879e-01  4.3771327786256825e-01  4.3448471158229363e-01  4.2929400262621370e-01  4.2176697031254029e-01  4.1098000678142671e-01  3.9652793242276874e-01  3.7721277502930045e-01  3.5289904222303814e-01  3.2300991372062898e-01  2.8661351358275122e-01  2.4636154253720871e-01  2.0067924402639706e-01  1.5333813581416939e-01  1.0581706787010944e-01  5.8283894308906375e-02  1.6255684949217218e-02  -2.2765020293763531e-02  -5.5564297809140566e-02  -8.1200533011151418e-02  -1.0049058708712923e-01  -1.1311465366144823e-01  -1.1815595295269332e-01  -1.1702998733320151e-01  -1.1030819345170627e-01  -1.0001947488466706e-01  -8.6656328864526982e-02  -6.9696947980074087e-02  -5.1706153280968968e-02  -3.1337037691732073e-02  -9.2263971777738988e-03  1.5769778808845045e-02  4.0099987159566419e-02  6.3747209151825732e-02  7.9674592536131780e-02  8.6057106403384556e-02  8.2105360195568244e-02  6.9704991374584441e-02  5.1572187001945484e-02  3.5630885554288706e-02  2.4383645422890541e-02  3.1064242877602694e-02  4.0959437460812126e-02  4.9046679454977163e-02  5.3239366137713240e-02  5.4900828583271215e-02  6.1394736503319773e-02  7.6892794871366327e-02  1.0515258785543966e-01  1.3992825622255164e-01  1.7382298849466205e-01  2.0185807165098341e-01  2.1437301112996049e-01  2.1272201376469382e-01  1.9605358650468915e-01  1.6099873646380078e-01  1.1303689655746668e-01  5.7548197614197161e-02  -8.2665723669719652e-04  -3.6976029624921455e-02  -4.3860156279786025e-02  -1.6875571863265968e-02  2.8673427352215518e-02  8.7998377376866388e-02  1.4060672278143577e-01  1.7867807523695051e-01  2.0300741588410751e-01  2.0752857787449813e-01  1.9508938901830514e-01  1.6626272111094578e-01  1.2578776634114033e-01  7.5605790474661899e-02  2.2700039914763874e-02  -2.2546734467028665e-02  -5.4971026674401478e-02  -6.4147559767980991e-02  -5.1030415458215302e-02  -2.1059693253098522e-02  1.8476356038761532e-02  6.2145067480062655e-02  9.7769292498454147e-02  1.2380184967656099e-01  1.3688788882335198e-01  1.3365236611477510e-01  1.1652900795593578e-01  8.5260954730795840e-02  4.7275756816728277e-02  3.5743709087969174e-03  -4.1591091791620918e-02  -7.9987426953030002e-02  -1.0320362354419819e-01  -1.1174427878373688e-01  -1.0104317969171885e-01  -7.8796011018916728e-02  -5.1431188297212597e-02  -2.4949942559701493e-02  -7.5894898119124128e-03  0.0000000000000000e+00  0.0000000000000000e+00  0.0000000000000000e+00  0.0000000000000000e+00  0.0000000000000000e+00  0.0000000000000000e+00  0.0000000000000000e+00  0.0000000000000000e+00  0.0000000000000000e+00  0.0000000000000000e+00  0.0000000000000000e+00  0.0000000000000000e+00  0.0000000000000000e+00  0.0000000000000000e+00  0.0000000000000000e+00  0.0000000000000000e+00  2.3193090326227354e-02  4.9882296015272894e-02  8.0003362947186088e-02  1.0638009232021844e-01  1.2646897125723519e-01  1.3775287153959284e-01  1.3615924290483786e-01  1.2415640303594618e-01  1.0001841492705650e-01  6.6548993523818170e-02  2.9870438319427407e-02  -6.4399820135797132e-03  -3.8494562546392282e-02  -5.5709869228494871e-02  -5.5474101212570189e-02  -3.3500957997667481e-02  -1.7064247278698028e-04  4.2715544429012743e-02  8.8808246145230862e-02  1.2763436999064601e-01  1.5680513994901427e-01  1.7506471106455548e-01  1.7687594090464709e-01  1.6392150654236712e-01  1.3511888642422010e-01  9.4669478472344332e-02  4.8697137031617828e-02  3.0384311627115919e-03  -2.8525306155235818e-02  -3.7381240243899480e-02  -2.5929629258106927e-02  1.5545501564909152e-02  7.1856643186057667e-02  1.3392231227687915e-01  1.8402983750293270e-01  2.2204102344230758e-01  2.3795128303280969e-01  2.2986070802406935e-01  2.0113635295931015e-01  1.5090389555413877e-01  9.1522451939311619e-02  3.2677516575957889e-02  -9.5578158777426675e-03  -2.2791117357996608e-02  -7.6758162367658485e-03  2.1085778821783651e-02  5.9009356910748961e-02  9.2592470796761112e-02  1.2016161527569720e-01  1.4140488875403612e-01  1.5383343599666177e-01  1.5935764018674425e-01  1.5749228770310031e-01  1.4984791844274881e-01  1.3724975221879002e-01  1.1874568455605063e-01  9.6034573445596308e-02  3.5456259244031660e-02  4.5829007692757681e-03  -2.6150561652626747e-02  -5.0475731702237445e-02  -6.7541693605027014e-02  -7.6270486283105676e-02  -7.6754573092482389e-02  -7.1645619265397448e-02  -6.4330014572763980e-02  -5.8215284186167109e-02  -5.3508601396182368e-02  -5.1763419719323085e-02  -5.1077582546630140e-02  -5.0623788681053231e-02  -5.0080761897280966e-02  -4.6458868912481563e-02  -4.1406461864796483e-02  -2.9903708582358121e-02  -1.6585866848656816e-02  4.3068468633355519e-03  3.0196776138737353e-02  5.9708517698014107e-02  9.6350659342370817e-02  1.3484883411088039e-01  1.7625810213611057e-01  2.1887998353147156e-01  2.6085864989156377e-01  3.0081637004352707e-01  3.3798090759087968e-01  3.7074082222565025e-01  3.9834920368845295e-01  4.2196250716700823e-01  4.4052085073661801e-01  4.5488427897854383e-01  4.6623048661373473e-01  4.7441574409590542e-01  4.8048419503889561e-01  4.8473332027640870e-01  4.8759195079097956e-01  4.8937642401338505e-01  4.9042198948857901e-01  4.9098364862290528e-01  4.9189684937304307e-01  4.9522432417464951e-01  5.0208650653597031e-01  5.1330725477698358e-01  5.2965405863238157e-01  5.5121279058261075e-01  5.7778925978858509e-01  6.0880133707194861e-01  6.4330996411345598e-01  6.7917412043756709e-01  7.1486277712942614e-01  7.4748446892056308e-01  7.7419997061900669e-01  7.9377414918527589e-01  8.0318573218305489e-01  8.0197328555147651e-01  7.8943583628797009e-01  7.6685395938893519e-01  7.3555938016320432e-01  6.9899850775853756e-01  6.5862531064651431e-01  6.1753074531976526e-01  5.7804993881095268e-01  5.4238161713769506e-01  5.1151895066761555e-01  4.8649032749023202e-01  4.6748372483834882e-01  4.5420761964670087e-01  4.4640270177822550e-01  4.4223449092381334e-01  4.4129622550158493e-01  2.3512257039208426e-02  1.6444863538269999e-02  1.1655900519432893e-02  1.8154780680241581e-02  3.2286725611692511e-02  4.2103818488096252e-02  3.2101390809678894e-02  8.8277027599801272e-03  2.7663488936716988e-03  3.6407618148454141e-02  6.7881363040997345e-02  6.9556879802067470e-02  6.9043601269074661e-02  6.8339469578771919e-02  6.6937777702187604e-02  6.6142167378499706e-02  -1.8664971840195636e-03  -7.3611463092756763e-02  -3.3665404558057693e-02  -5.8989496356572219e-03  -5.1967826992077297e-02  -3.4093161938985130e-02  -2.2851881702067131e-01  1.4483001569347564e-01  1.1092586451978272e-01  -5.9321529758489769e-02  2.1715736574977126e-01  -1.0108168913303980e-01  2.0897246798370389e-01  -3.3540566718515963e-01  2.1616287243024720e-01  -2.2063443856389908e-01  -2.0167033474703727e-01  1.6214134638946076e-01  5.3773629514712581e-02  1.3778738281505351e-01  -3.2288276180984211e-02  8.4316799286306185e-02  1.3056471344930645e-01  -4.5123607327898191e-02  1.5622361638522145e-01  -8.4284969890285596e-02  4.2599849211037044e-02  7.3331730445730353e-02  1.4472248048384720e-01  -9.6907168437150693e-02  1.1837510293377079e-01  3.4054168365068686e-03  7.8569311493470628e-02  -7.5483883386675318e-02  -7.2840776920468614e-02  -9.6124388611460981e-03  1.5101153150252103e-02  -7.2917569136472404e-02  -7.7854205267771023e-02  1.6567620813298373e-01  -1.1352844712653691e-01  -7.3274689703846221e-02  1.7318389477711987e-01  -2.1039604886221381e-02  -1.2559528815944720e-01  1.2822174221795316e-01  1.4368780026215092e-01  -5.7648194640329671e-02  3.1574241371178112e-02  8.7010984594599924e-02  2.3795881237222838e-01  -3.7187037026600742e-02  2.0357309147884914e-01  -9.4849925801395493e-02  -5.7322808879821677e-02  -9.2444661925792246e-02  2.5640078437582625e-01  2.0575538816216479e-01  2.3197644991142455e-01  -1.0418200791086916e-01  1.1841703850016634e-01  -2.0042546173665488e-01  6.4627083140199715e-02  6.6136798829989421e-02  1.8174370536504272e-01  1.1484907021122313e-02  8.1319053421842771e-02  -2.7062529276885600e-02  -5.0035258221721265e-02  -5.6509770069255318e-02  1.4608310871522648e-01  -1.7074785025227365e-01  1.0021917017830625e-01  1.6639311024243836e-01  -1.5006713235024419e-01  4.4057623881425305e-02  1.5794184895855420e-01  8.2035676445691326e-03  -8.4361922361650341e-02  1.8118300405445206e-02  -9.0085959467694543e-02  1.1106955205293187e-01  -7.2813806768792469e-02  3.4809711937203662e-02  1.1021464864317791e-01  4.5833148722546284e-02  3.0605288084085556e-02  -1.9199457335369349e-01  -5.6871207578084809e-02  7.7630387711428481e-02  2.6435157403103099e-03  1.2937698666099087e-01  8.8868474498592337e-02  -2.2272933343611842e-01  9.6998790692694986e-02  -6.8410796809386193e-02  -1.8829733452004188e-01  -1.8903422932528033e-01  -9.3538263697436161e-02  -1.4414453797509616e-01  1.2735432323413881e-01  -4.1756840361666762e-02  5.6156307524967849e-02  1.1433021592250781e-01  8.6682644735503064e-02  1.1846195266865064e-01  2.6309645519442090e-02  -9.9201948933310899e-03  1.8469680168395150e-01  -1.4273396454982946e-02  -7.6170868236770786e-02  7.3594142260539369e-02  6.2476558128351178e-02  1.2499365998918434e-01  -3.7139746538137522e-02  9.7780643206343651e-02  9.6147752841231018e-02  1.0267994179035587e-01  -8.7279945317046539e-02  1.2772063606739098e-02  3.8443719056870114e-02  1.9933617664994047e-01  1.5682742159909738e-01  -1.0632891715644451e-01  1.2727130023695407e-01  5.4194803599885842e-02  -7.1979376861211530e-02  2.1680380413335246e-01  3.1645157508324653e-02  -1.8850264696130781e-01  -2.1695963131408305e-01  1.2966974749159669e-02  1.2847318584523998e-01  -5.3674514771904325e-02  6.2346725744130221e-02  -2.9181146186473286e-02  -7.1845312013761028e-02  1.3018274788365855e-01  7.4479509359544949e-02  2.5207167458502872e-01  -1.6432631039200094e-02  1.3978655872704030e-02  1.1078537119431076e-01  4.6688559746235488e-02  3.0167380849008069e-02  -1.1696253895056244e-01  -8.2554194384779289e-02  4.4563855624208872e-02  1.1681400010059746e-02  4.9605859252352516e-02  -1.7283703236950226e-01  2.0628346336088921e-01  -1.5435575819292269e-01  -3.8114777145756978e-02  5.9401492142299304e-02  2.2070121176535257e-01  1.1358827904158333e-01  -2.3323703164210103e-03  -7.3179461588480058e-02  1.7089318494753020e-01  -1.7007660810807140e-01  2.3224592321133150e-01  9.2807646923733791e-02  -1.8289495053598515e-01  1.7525837628067517e-01  1.8157109995059620e-01  1.7197291523044222e-01  1.6254772328545791e-01  1.1489840613545213e-01  8.1881766005648428e-03  1.1336258226601095e-01  1.7328135384706661e-01  -1.3922136447947275e-01  1.9857736416715727e-01  6.0932652852460224e-02  7.5658349558061930e-02  -5.0265101442640266e-03  -1.8017582025519865e-01  -1.2732887992614253e-01  -1.7925071653808167e-01  1.1146901694709589e-01  -1.5681404707677194e-02  2.0473090774838401e-02  3.9401221247988678e-02  1.5788140446163437e-01  -1.8082676412788171e-01  1.0580221846798829e-01  -1.0527175641287397e-01  8.5780661281853743e-02  -3.3996185724782135e-02  -9.1037469547165045e-02  6.5421446536741368e-02  -6.6828096651234778e-02  1.0165170285040634e-01  1.0183101943571164e-01  -1.5014068883580569e-03  4.3924493111822747e-02  -2.0910684351886782e-01  1.3819085561522770e-01  -4.4445789659479901e-02  -1.4889042942765668e-01  1.8595477249418171e-01  -1.0443643712337861e-01  5.4050320404268840e-02  1.5493235846733533e-01  1.3964551474599268e-01  -8.8119397099984453e-02  -2.3166308466690124e-02  2.8528360529822980e-02  2.3729395141179835e-01  -8.8398783788028762e-02  -4.3482942963491887e-02  2.4328941951606689e-01  2.7468936193276866e-01  -3.6325975167302425e-02  -3.6063431750047795e-02  -3.2558263701959550e-02  -1.3714110697950319e-01  1.4898216247466592e-01  -1.1333263073015730e-01  1.0347721728726476e-01  3.7601357950369521e-02  -2.5050229378669642e-01  2.7123114696487060e-03  1.6447872060694455e-01  -1.3094888244652270e-01  -9.2422993516358149e-03  1.3130198895111045e-02  8.6329518995011123e-02  1.8118410951600566e-01  1.4539644523404341e-01  -6.8884958400623794e-02  1.3753936097747316e-01  1.2793186614408264e-01  2.3003313042187504e-02  -1.5648791982285737e-01  5.5155328894406525e-02  1.6901711551666762e-01  1.4863442968144244e-01  -4.2233886665138609e-02  2.1564668470192080e-01  1.2457465231848619e-01  3.1944006127263211e-02  4.4396778289190107e-02  -3.7119546983581574e-02  -1.3554166085944430e-01  1.1330353729760783e-03  -2.1740789498459437e-02  -6.9855483852854063e-03  -1.8231723875105027e-01  1.1588201037817597e-01  -5.2651047500610441e-02  -5.0978005984637226e-02  -7.4686159903716007e-02  4.4324019103965842e-02  8.0128129373770354e-02  1.5687858003190136e-01  3.1494179577906060e-02  4.8717356495288883e-02  1.8707092527910696e-01  -1.0251529954463075e-02  1.4103326660206567e-01  -6.2020514761014001e-02  4.1420195617749636e-02  9.0360479728264692e-02  7.3904777032453184e-02  3.4106173574856145e-02  -1.2647715730613622e-02  2.1426255205097589e-01  3.1825582087731077e-02  2.1748266567998059e-01  7.1907412178452312e-02  1.8458152262611557e-01  -2.4640403463455587e-01  -3.1084964714541474e-02  1.3498525212414668e-02  1.6553371270497169e-01  7.4865867461753915e-02  1.5062869309039412e-02  -4.5280325090531343e-02  -1.9016655228169457e-01  7.3032533906091990e-02  -1.0053556974299402e-01  1.9915651194276049e-01  -1.3081792974199287e-02  1.5955051209110546e-01  2.3577504244033803e-01  -5.2665309365695252e-03  8.7473756859069562e-03  1.0928928518827710e-01  3.0383456844615155e-02  -5.4325010814550823e-02  8.1881643154077699e-02  2.0352342569954482e-01  -1.0723487555467277e-01  -1.8287761568980032e-01  -4.5603492140317670e-02  1.6170245584601040e-01  -1.2394535046994720e-01  5.2964797515710760e-02  1.4486019060326497e-01  6.6151338573544410e-02  -1.2885150524122410e-02  3.9989014982606680e-02  1.7760005139975782e-01  -1.0746322297860265e-02  1.0530194124149191e-01  1.1377019978486473e-01  1.5834810784541603e-01  -1.3203642208700581e-01  1.4721771960824137e-01  3.1767075190587454e-02  -1.7391051007485867e-01  3.1249774084834172e-02  1.5243254684562637e-02  -1.0830023023463108e-01  2.2502110882160048e-01  1.4058678582406636e-01  -4.7213368007303129e-02  -7.5984063775204974e-02  -1.5450979042559751e-01  6.9279288531690714e-02  -1.1799654122047183e-01  -1.0226877964064733e-01  2.9551629474398221e-02  2.1194344511851954e-02  -1.6683938318052091e-01  -2.5585776577223318e-01  1.1190332659799737e-01  -2.3293632924164993e-02  -2.1943940653094712e-02  -1.0542081472973369e-01  1.0829312817691535e-01  1.4523466473853802e-01  1.1419237967112535e-01  -3.8551041845577463e-02  3.3275605303831319e-04  1.2808473764367778e-02  -1.1616557749118453e-01  1.2303926236110407e-01  -2.9017574447862826e-01  1.7243194666256526e-01  2.8853711299210112e-02  5.3728181862272045e-02  1.6059125914902762e-02  6.8859098382750186e-02  -1.0438592211108167e-02  -4.5368348451366551e-02  6.3599486806598937e-02  3.5678550961140750e-03  -8.3198590706718659e-02  -2.3317441105998105e-01  1.4424765216313562e-01  8.8638998721625770e-02  1.4470939162491714e-01  1.1828721347407009e-01  -2.1663511147520778e-01  -1.4604930229751782e-02  -5.1149640962557197e-02  -1.2130462009783344e-01  -2.6370008825628777e-01  1.7841674740755978e-01  -3.8175345978287541e-02  3.5592577947987369e-02  1.3847017512705903e-01  2.4255371289734870e-01  -1.4215865853051027e-01  4.2790544542852776e-02  -3.8897136776501209e-02  8.3919855679924410e-02  -5.1559518785986164e-03  6.5914370980338741e-02  6.5991666495773278e-03  2.6226389119139237e-01  1.6059901491694001e-01  -1.6076439081872893e-01  4.6328652985473950e-02  -8.0686729415880218e-03  1.5849704020712063e-01  1.3788559421910079e-01  -6.2682265701821463e-02  -1.0733159570715405e-01  -2.5420586599804664e-03  -2.5382710590124556e-02  -1.9097773034806734e-01  -4.6911714630048167e-02  1.1419070518964807e-02  2.0810665631652941e-02  -5.9318921940338804e-02  9.7073136593927314e-02  1.4313232532735262e-01  5.1886177559553680e-02  -1.8129309660634349e-01  -1.4732917342814860e-02  1.1690649685280469e-01  1.1511578140563342e-01  -1.1155463435463973e-01  1.4127754354483707e-01  -9.3072985692372844e-03  1.2077530088383072e-01  -1.5389907745285672e-01  -5.0789770947733938e-02  -3.5314126286844771e-03  9.0527680804660615e-02  -9.5789030482449092e-02  2.8360599134818101e-02  1.5983607673800718e-01  1.1976370393999905e-01  -1.0813861408393727e-01  4.5189629457508998e-02  2.1831538126216582e-01  -2.1635638264587564e-01  8.4101274748118154e-02  6.1009277390294700e-02  1.9020654970004597e-01  1.2339013312919250e-01  -2.2474690080478105e-02  8.1822157869418780e-02  1.1517144859725607e-01  -6.4651787137336270e-02  1.3617782681726442e-01  4.87088169205