<?xml version="1.0"?>
<VTKFile type="UnstructuredGrid"  version="0.1"  >
<UnstructuredGrid>
<Piece  NumberOfPoints="4820" NumberOfCells="9262">
<Points>
<DataArray  type="Float64"  NumberOfComponents="3"  format="ascii">0.004357787137382907 0.04980973490458728 0  3.061616997868383e-18 0.05 0  -0.004357787137382901 0.04980973490458728 0  -0.004357787137382912 -0.04980973490458728 0  -9.184850993605149e-18 -0.05 0  0.004357787137382894 -0.04980973490458728 0  -0.2 -0.2 0  0.55 -0.2 0  2 -0.2 0  2 0.21 0  0.55 0.21 0  -0.2 0.21 0  0.002180969358710071 0.04995241107951016 0  -0.002180969376377175 0.04995241107873878 0  -0.00218096936205605 -0.04995241107936408 0  0.002180969376762267 -0.04995241107872198 0  -0.00681459716460041 0.04953343583362881 0  -0.009254746165878699 0.04913603233275104 0  -0.01167226821331763 0.04861849601495686 0  -0.01406125270101674 0.04798209220613614 0  -0.01641585879600313 0.04722837685110179 0  -0.01873032971283131 0.04635919271135586 0  -0.02099900679895535 0.04537666485604058 0  -0.02321634335656028 0.04428319547131056 0  -0.02537691821523419 0.04308145798249308 0  -0.02747544897576464 0.04177439052314415 0  -0.0295068049360126 0.04036518874560236 0  -0.03146601963036187 0.03885729800979068 0  -0.03334830296690066 0.03725440496408185 0  -0.03514905295182857 0.03556042852089316 0  -0.03686386691867947 0.03377951029547187 0  -0.03848855232085789 0.03191600445301051 0  -0.04001913696023074 0.02997446708380811 0  -0.04145187870654155 0.02795964505672717 0  -0.04278327464009846 0.02587646442367869 0  -0.04401006963121561 0.02373001835346012 0  -0.04512926428658137 0.02152555469556806 0  -0.04613812228218922 0.0192684631528764 0  -0.04703417705848439 0.01696426209509693 0  -0.04781523785065199 0.0146185850644164 0  -0.04847939503850856 0.01223716702101564 0  -0.04902502482533359 0.009825830289366174 0  -0.04945079319725205 0.00739047036139188 0  -0.04975565919278197 0.004937041451287537 0  -0.04993887744399172 0.002471541954727039 0  -0.05000000000000002 -2.179027782864273e-10 0  -0.04993887742290181 -0.002471542380860383 0  -0.04975565915220143 -0.004937041860259632 0  -0.04945079313853181 -0.007390470754298181 0  -0.04902502474990915 -0.009825830665689136 0  -0.04847939494791073 -0.01223716737993267 0  -0.04781523774597484 -0.01461858540679994 0  -0.04703417694176702 -0.01696426241870103 0  -0.04613812215449838 -0.01926846345863071 0  -0.04512926414810409 -0.02152555498589172 0  -0.04401006948618459 -0.02373001862243695 0  -0.04278327448542859 -0.02587646467940464 0  -0.04145187854660255 -0.0279596452938465 0  -0.04001913680095092 -0.02997446729646378 0  -0.03848855215910903 -0.03191600464806871 0  -0.03686386675419343 -0.0337795104749769 0  -0.03514905278746659 -0.03556042868335375 0  -0.0333483028093871 -0.0372544051050802 0  -0.03146601947545011 -0.03885729813523576 0  -0.02950680478964417 -0.04036518885259716 0  -0.02747544883924331 -0.04177439061293563 0  -0.0253769180845661 -0.04308145805946247 0  -0.02321634324304243 -0.04428319553082456 0  -0.02099900669895044 -0.04537666490231995 0  -0.01873032963061061 -0.04635919274457518 0  -0.01641585872377311 -0.04722837687620784 0  -0.01406125264610136 -0.04798209222222922 0  -0.01167226817214395 -0.04861849602484179 0  -0.009254746140787012 -0.04913603233747704 0  -0.006814597153124481 -0.04953343583520761 0  0.006814597163087254 -0.04953343583383697 0  0.009254746162416328 -0.04913603233340317 0  0.01167226820749043 -0.04861849601635584 0  0.01406125269526824 -0.04798209220782076 0  0.01641585878869484 -0.04722837685364205 0  0.01873032970478165 -0.04635919271460813 0  0.02099900678940205 -0.04537666486046157 0  0.02321634334324823 -0.04428319547828967 0  0.02537691819928517 -0.04308145799188777 0  0.02747544895679411 -0.04177439053562125 0  0.02950680491571239 -0.04036518876044175 0  0.03146601960788315 -0.03885729802799359 0  0.03334830294823126 -0.03725440498079377 0  0.03514905293079007 -0.03556042854168828 0  0.03686386690162479 -0.03377951031408381 0  0.03848855230703181 -0.03191600446968382 0  0.04001913694627814 -0.02997446710243633 0  0.04145187869083342 -0.02795964508001545 0  0.04278327462632659 -0.02587646444644864 0  0.04401006962056583 -0.02373001837321138 0  0.04512926427712953 -0.02152555471538427 0  0.04613812227399118 -0.01926846317250652 0  0.04703417705106056 -0.01696426211567986 0  0.04781523784312168 -0.01461858508904696 0  0.04847939503319636 -0.01223716704206073 0  0.04902502482144694 -0.009825830308758294 0  0.04945079319422288 -0.007390470381660498 0  0.0497556591909245 -0.004937041470007301 0  0.04993887744294273 -0.002471541975922472 0  0.05000000000000002 1.960026680888904e-10 0  0.04993887742406512 0.002471542357355427 0  0.0497556591543939 0.004937041838163785 0  0.04945079314184119 0.007390470732154637 0  0.04902502475403982 0.009825830645079567 0  0.04847939495309415 0.01223716735939779 0  0.04781523775084436 0.01461858539087247 0  0.04703417694693356 0.01696426240437658 0  0.04613812215952091 0.01926846344660432 0  0.04512926415455419 0.02152555497236883 0  0.04401006949386337 0.02373001860819578 0  0.04278327450092428 0.0258764646537846 0  0.04145187856220046 0.02795964527072164 0  0.04001913681616228 0.02997446727615497 0  0.03848855217730672 0.03191600462612355 0  0.03686386677147228 0.03377951045612033 0  0.03514905280168957 0.03556042866929533 0  0.0333483028196165 0.03725440509592335 0  0.03146601948352148 0.03885729812869969 0  0.02950680480117144 0.04036518884417076 0  0.02747544884918156 0.04177439060639914 0  0.02537691809390653 0.04308145805396053 0  0.02321634324922249 0.04428319552758454 0  0.02099900670813883 0.04537666489806784 0  0.01873032963827596 0.04635919274147818 0  0.01641585873206496 0.04722837687332573 0  0.01406125264532184 0.04798209222245766 0  0.01167226817007835 0.04861849602533769 0  0.009254746139683721 0.04913603233768484 0  0.006814597151967234 0.04953343583536681 0  -0.1875196675247935 -0.2 0  -0.1748316574073939 -0.2 0  -0.1619325191073485 -0.2 0  -0.1488187266915765 -0.2 0  -0.1354867190390691 -0.2 0  -0.1219328601465505 -0.2 0  -0.1081534589822707 -0.2 0  -0.09414476550972861 -0.2 0  -0.07990295838040007 -0.2 0  -0.06542416251428446 -0.2 0  -0.05070442829752772 -0.2 0  -0.03573975778997357 -0.2 0  -0.02052606446908414 -0.2 0  -0.005059208186730002 -0.2 0  0.0106650220181323 -0.2 0  0.02665090828184707 -0.2 0  0.04290281009001662 -0.2 0  0.05942514756265038 -0.2 0  0.07622242703544463 -0.2 0  0.09329921759985482 -0.2 0  0.110660176225582 -0.2 0  0.1283100240439488 -0.2 0  0.146253576648871 -0.2 0  0.1644957213272042 -0.2 0  0.1830414174264912 -0.2 0  0.2018957247245375 -0.2 0  0.2210637776854531 -0.2 0  0.2405507899571802 -0.2 0  0.2603620802338072 -0.2 0  0.2805030369240936 -0.2 0  0.3009791461642926 -0.2 0  0.3217959913512258 -0.2 0  0.3429592352388189 -0.2 0  0.3644746444814039 -0.2 0  0.3863480802046066 -0.2 0  0.4085854997083186 -0.2 0  0.4311929582382759 -0.2 0  0.4541766169094176 -0.2 0  0.4775427325114808 -0.2 0  0.5012976686781503 -0.2 0  0.5254479007761028 -0.2 0  0.5750000000714078 -0.2 0  0.6000000001173931 -0.2 0  0.6250000002059986 -0.2 0  0.6500000002385247 -0.2 0  0.675000000336103 -0.2 0  0.7000000003686291 -0.2 0  0.7250000004542437 -0.2 0  0.7500000005062106 -0.2 0  0.7750000005716368 -0.2 0  0.8000000006490264 -0.2 0  0.8250000006890297 -0.2 0  0.8500000007910944 -0.2 0  0.8750000008565204 -0.2 0  0.9000000009518555 -0.2 0  0.9250000010408349 -0.2 0  0.9500000011343006 -0.2 0  0.9750000012251494 -0.2 0  1.000000001296183 -0.2 0  1.0250000013646 -0.2 0  1.050000001466665 -0.2 0  1.075000001557888 -0.2 0  1.100000001673038 -0.2 0  1.125000001762017 -0.2 0  1.150000001851744 -0.2 0  1.175000001947827 -0.2 0  1.200000002046153 -0.2 0  1.225000002155695 -0.2 0  1.25000000221813 -0.2 0  1.275000002244301 -0.2 0  1.300000002154947 -0.2 0  1.325000002108962 -0.2 0  1.350000002019609 -0.2 0  1.375000001973624 -0.2 0  1.400000001884271 -0.2 0  1.42500000182707 -0.2 0  1.450000001748932 -0.2 0  1.475000001659579 -0.2 0  1.500000001570226 -0.2 0  1.525000001480872 -0.2 0  1.550000001391519 -0.2 0  1.575000001345534 -0.2 0  1.60000000125618 -0.2 0  1.625000001210195 -0.2 0  1.650000001120842 -0.2 0  1.675000001066632 -0.2 0  1.700000000985504 -0.2 0  1.725000000905871 -0.2 0  1.750000000850165 -0.2 0  1.775000000760812 -0.2 0  1.800000000714827 -0.2 0  1.825000000625473 -0.2 0  1.85000000053612 -0.2 0  1.875000000446767 -0.2 0  1.900000000357413 -0.2 0  1.92500000026806 -0.2 0  1.950000000178707 -0.2 0  1.975000000089353 -0.2 0  2 -0.1758823529236379 0  2 -0.1517647057870068 0  2 -0.1276470586430415 0  2 -0.103529411528254 0  2 -0.07941176439513059 0  2 -0.05529411724717925 0  2 -0.03117647008918309 0  2 -0.007058822960843009 0  2 0.01705882406928105 0  2 0.0411764710640091 0  2 0.06529411804247409 0  2 0.08941176503720205 0  2 0.11352941203193 0  2 0.137647059026658 0  2 0.1617647060111818 0  2 0.185882353005272 0  1.974999999927471 0.21 0  1.949999999833257 0.21 0  1.924999999782412 0.21 0  1.899999999688198 0.21 0  1.874999999637353 0.21 0  1.849999999543139 0.21 0  1.824999999448926 0.21 0  1.799999999354712 0.21 0  1.774999999260499 0.21 0  1.749999999166286 0.21 0  1.724999999082914 0.21 0  1.699999998977859 0.21 0  1.674999998902712 0.21 0  1.649999998789432 0.21 0  1.624999998688863 0.21 0  1.599999998581938 0.21 0  1.574999998495201 0.21 0  1.549999998413699 0.21 0  1.524999998318364 0.21 0  1.499999998273501 0.21 0  1.474999998238357 0.21 0  1.449999998189755 0.21 0  1.424999998038714 0.21 0  1.399999997975905 0.21 0  1.37499999792992 0.21 0  1.349999997902628 0.21 0  1.324999997821126 0.21 0  1.299999997699994 0.21 0  1.274999997636438 0.21 0  1.249999997681301 0.21 0  1.224999997765794 0.21 0  1.199999997857764 0.21 0  1.174999997916835 0.21 0  1.149999998014039 0.21 0  1.124999998067875 0.21 0  1.09999999816508 0.21 0  1.074999998218916 0.21 0  1.049999998316121 0.21 0  1.02499999838865 0.21 0  0.999999998467161 0.21 0  0.9749999985209969 0.21 0 
[...]
<PointData  Scalars="pressure"> 
<DataArray  type="Float64"  Name="pressure"  format="ascii">-7.8183507541905395e-01  -7.9810945236754660e-01  -9.0519999589027234e-01  -1.1031805211249868e+00  -1.1125069271005692e+00  -9.9654222114974400e-01  4.9122888778794060e-01  2.2178321938625517e-01  0.0000000000000000e+00  0.0000000000000000e+00  2.6005236209343391e-01  5.2337611869530742e-01  -7.8357589482999490e-01  -8.4264013526987847e-01  -1.1219776583343679e+00  -1.0602559092215196e+00  -9.4216143331106983e-01  -9.6182317297481557e-01  -9.6969942373842544e-01  -9.6386754684772891e-01  -9.4252174009427858e-01  -9.0291298399373743e-01  -8.4811819816329581e-01  -7.7867229134637295e-01  -6.9015382315489171e-01  -5.8362863453739600e-01  -4.6193959552361852e-01  -3.3053687681185207e-01  -1.8646711097575486e-01  -2.5407288135684786e-02  1.3820925618549387e-01  3.1318766623402922e-01  4.8911749442601099e-01  6.6342058745833754e-01  8.4370092988815837e-01  1.0114159315423426e+00  1.1798142635945774e+00  1.3366987889029438e+00  1.4792659726357504e+00  1.6117482671583712e+00  1.7255251231768789e+00  1.8212881045151603e+00  1.8990512599810687e+00  1.9576259998574501e+00  1.9905142121649508e+00  2.0033704243266754e+00  1.9942830254911881e+00  1.9618946634699868e+00  1.9086953785561709e+00  1.8337228641135852e+00  1.7404967296530376e+00  1.6306194015516626e+00  1.5014651293788430e+00  1.3616441491723266e+00  1.2072341851621444e+00  1.0425799729888452e+00  8.7229589509531225e-01  6.9593144456364708e-01  5.2082875989791821e-01  3.4523781798518482e-01  1.6654245400244988e-01  6.2827773870642563e-03  -1.6273770700721471e-01  -3.1034309039592095e-01  -4.5329972333696666e-01  -5.7876403584340652e-01  -6.9759853947646222e-01  -7.9650234101325812e-01  -8.8402938447824020e-01  -9.5654287521361447e-01  -1.0109221709256753e+00  -1.0546497048235941e+00  -1.0813247858064690e+00  -1.1006174497069436e+00  -1.1041147976585852e+00  -9.6191699405316833e-01  -9.3279111177781182e-01  -9.0014294883781276e-01  -8.6939816917650825e-01  -8.3986882294130294e-01  -8.1287804310738543e-01  -7.8748984102321651e-01  -7.6470295759794926e-01  -7.4389185772177902e-01  -7.2522511054290395e-01  -7.0856480989756176e-01  -6.9317964332092230e-01  -6.7886407614962241e-01  -6.6513658188712688e-01  -6.5062911732011641e-01  -6.3556954612384498e-01  -6.1912395675258169e-01  -6.0150922664960771e-01  -5.8253501742777514e-01  -5.6283503738217755e-01  -5.4293583467938333e-01  -5.2310332721262165e-01  -5.0451690102717806e-01  -4.8668327212456158e-01  -4.7138720491690472e-01  -4.5826653064515482e-01  -4.4760513853319250e-01  -4.3862968537303931e-01  -4.3231963806155449e-01  -4.2736973339162054e-01  -4.2309988840741047e-01  -4.1974309380665931e-01  -4.1580213738799326e-01  -4.1169741652248337e-01  -4.0677152985113646e-01  -4.0087350295884377e-01  -3.9390234628920812e-01  -3.8649405821176375e-01  -3.7858213955460041e-01  -3.7051923790408126e-01  -3.6269708399862299e-01  -3.5613274661823846e-01  -3.5104963045328086e-01  -3.4795979814722033e-01  -3.4829857224953120e-01  -3.5074652874157786e-01  -3.5876144743251798e-01  -3.6924109966231417e-01  -3.8315528370962676e-01  -4.0076672211771214e-01  -4.2177175878681122e-01  -4.4638290819761006e-01  -4.7527645877330410e-01  -5.0839303124524005e-01  -5.4639047201702406e-01  -5.8831501158578425e-01  -6.3363432913498929e-01  -6.8184500948425442e-01  -7.3416166183083587e-01  4.9058046270910954e-01  4.8939237777785327e-01  4.8646656159436874e-01  4.8207908072491812e-01  4.7527667873523882e-01  4.6580911384436480e-01  4.5283649040721957e-01  4.3619996723501164e-01  4.1508055730142146e-01  3.8956282872354298e-01  3.5967625776364032e-01  3.2490033852904321e-01  2.8828981915950685e-01  2.4921254444159083e-01  2.1135312279498480e-01  1.7766758847863010e-01  1.4782754691490727e-01  1.2827314743902166e-01  1.1717707635764983e-01  1.1566283408242238e-01  1.2649166901864070e-01  1.4571057823620825e-01  1.7166158295824993e-01  2.0374547039787064e-01  2.3746637531812992e-01  2.6991247295658805e-01  2.9657265633709567e-01  3.1415965109077854e-01  3.1949343102386846e-01  3.1342027756825291e-01  2.8846636820843857e-01  2.5142044091906890e-01  2.0227545103153574e-01  1.5896361633333111e-01  1.2242693284842403e-01  1.0384322440880439e-01  1.0049613523705535e-01  1.0609892749253864e-01  1.1977525598759768e-01  1.4171438111413676e-01  1.7513324511327738e-01  2.6967699382436683e-01  3.0545595195423852e-01  3.2707830570632962e-01  3.3085614423902665e-01  3.2112722933630128e-01  3.0181799873441717e-01  2.7332496987315197e-01  2.3797563708078423e-01  1.9430466573861002e-01  1.4463776719425311e-01  9.2161668429272300e-02  4.1407648769421657e-02  1.6528671576175529e-02  2.5734962417177903e-02  7.0668745418389065e-02  1.4092542688370935e-01  2.0916933694208059e-01  2.5845748832209087e-01  2.8956326883281497e-01  2.9604762436420407e-01  2.8270487314646842e-01  2.4951488584431591e-01  2.0512679368650555e-01  1.4331917460557722e-01  7.9114228802698000e-02  2.2233122958164635e-02  -2.2120629585689680e-02  -3.9133085062385192e-02  -3.0777274797362534e-02  4.0639244013988881e-03  4.9212177448504882e-02  9.9718097911538212e-02  1.4460430692382939e-01  1.7586984903265587e-01  1.9334706279785646e-01  1.9308367175284474e-01  1.7703998536431870e-01  1.4899865478916308e-01  1.1038782689557433e-01  6.2847439720303641e-02  1.7100122878193152e-02  -2.3092242118377397e-02  -4.9977805272642430e-02  -5.5130855304128527e-02  -4.0385201969494619e-02  -8.1917763956968429e-03  2.9935124647646014e-02  6.9305642843352583e-02  1.0542168799801546e-01  1.3157192553573074e-01  1.4500226001264652e-01  1.4761811027043950e-01  1.3668390447990553e-01  1.1638039878154996e-01  8.8780310178315336e-02  5.6351732694342641e-02  2.6770810687513941e-02  0.0000000000000000e+00  0.0000000000000000e+00  0.0000000000000000e+00  0.0000000000000000e+00  0.0000000000000000e+00  0.0000000000000000e+00  0.0000000000000000e+00  0.0000000000000000e+00  0.0000000000000000e+00  0.0000000000000000e+00  0.0000000000000000e+00  0.0000000000000000e+00  0.0000000000000000e+00  0.0000000000000000e+00  0.0000000000000000e+00  0.0000000000000000e+00  -6.2752364817236722e-03  -2.1833713695325961e-02  -4.5574115849364119e-02  -6.9733031933166476e-02  -8.8999308580933204e-02  -9.7760057295020922e-02  -8.9332302820937376e-02  -6.7591221011922498e-02  -3.2057246456814528e-02  1.0141179018248240e-02  5.1798368275626200e-02  8.8804207083453143e-02  1.1986134032638890e-01  1.3774207845929154e-01  1.4233346217227935e-01  1.3050309655326603e-01  1.0811722372303145e-01  7.5322529552429213e-02  3.5131509964170658e-02  -2.0193174222844969e-03  -3.1324438530837398e-02  -4.6445090178956552e-02  -3.9764777339803555e-02  -1.1394659799096863e-02  3.4391588467458392e-02  8.8810610796618866e-02  1.4182828358685687e-01  1.8937968782904596e-01  2.2031089470116019e-01  2.3676592128670562e-01  2.3775676057157594e-01  2.1742845744209147e-01  1.8022672997407027e-01  1.2499446265686735e-01  6.6636090675112308e-02  8.4789708758518205e-03  -2.6016677813094569e-02  -2.2667559986533217e-02  1.5474795675787708e-02  7.9206178545144279e-02  1.4510366717789216e-01  2.0576294915546636e-01  2.5745963819845591e-01  2.9352859529884451e-01  3.2047020507906299e-01  3.3039500314997194e-01  3.2069431299485440e-01  2.8771879074908230e-01  2.3114284927461129e-01  1.6089905964975582e-01  1.0466856659515694e-01  7.0637156680705762e-02  7.4011260049646616e-02  1.0120777521355803e-01  1.3958932317648914e-01  1.8239920162971973e-01  2.2103531340597118e-01  3.0090055169127761e-01  3.3614132990674700e-01  3.7064939767189597e-01  3.8925355161345288e-01  3.9124220215599115e-01  3.7519978080366517e-01  3.4280208597137163e-01  2.9686633172661836e-01  2.4250735561105072e-01  1.8709270703756112e-01  1.3681280418566422e-01  9.8272985866216064e-02  7.2657824911399091e-02  6.1756368940923366e-02  6.0263146245601355e-02  6.9473391444250743e-02  8.2758104178836570e-02  9.9997211563625607e-02  1.1771534705958075e-01  1.3737982622800368e-01  1.5999992312021796e-01  1.8360865268771076e-01  2.1205978360587482e-01  2.4190405245159177e-01  2.7421056383329417e-01  3.0809891911541859e-01  3.4201852866106214e-01  3.7485776869320425e-01  4.0545903016559581e-01  4.3255845098441625e-01  4.5515038512171402e-01  4.7405938949314597e-01  4.8855200485345412e-01  4.9923553272570209e-01  5.0725640152655316e-01  5.1269064341449155e-01  5.1652314359385054e-01  5.1906680043141784e-01  5.2077513630477024e-01  5.2188531620770195e-01  5.2265125717855188e-01  5.2324871438924925e-01  5.2391424514477858e-01  5.2670204651440278e-01  5.3278818687377938e-01  5.4300934169626502e-01  5.5822876042079950e-01  5.7864100879868274e-01  6.0417908909351181e-01  6.3430754273658807e-01  6.6825363476494026e-01  7.0398377487111818e-01  7.4004329581293105e-01  7.7356361265686691e-01  8.0182492219165791e-01  8.2336382179764023e-01  8.3519541020894617e-01  8.3665858678130789e-01  8.2695174720635467e-01  8.0715616065491658e-01  7.7849115810442571e-01  7.4427606232169707e-01  7.0587369043015902e-01  6.6634959347446732e-01  6.2802127479601244e-01  5.9314857707168633e-01  5.6267673286840936e-01  5.3772650096171648e-01  5.1856851920152913e-01  5.0499429103425009e-01  4.9679197090663985e-01  4.9226800053526448e-01  4.9108821342196418e-01  2.1812998194526684e-01  2.1100511753159390e-01  1.8704111902423931e-01  1.1765736442938780e-01  -2.5395571864792691e-02  -2.0173241016382229e-01  -3.7460496435909452e-01  -3.6454480993790883e-01  -2.3297250799152791e-01  -2.1966237464528464e-02  1.3502674631006351e-01  2.2613051647009566e-01  2.5157910892407626e-01  2.5792731673729241e-01  2.5947086496790900e-01  2.6097742947255959e-01  -2.3380818554792959e-02  -4.8210020370093080e-02  -2.7593514449910095e-02  -1.0929595633021229e-02  -5.3789262836082791e-02  -9.0525112324981449e-03  1.7233393695193877e-01  -1.6637324830266126e-01  -1.4739951588042211e-01  2.5519207796616139e-01  -2.6330506305991042e-01  9.1187304685129034e-02  -2.7191228979206178e-01  2.5047037033064223e-01  -2.7175605221489996e-01  2.1291687224602546e-01  1.5872655452936876e-01  -1.4809429345498545e-01  2.8538054069650493e-01  -1.7823785264445066e-01  1.3256002186710689e-01  -5.6491928694763389e-03  -4.3914613230067498e-02  1.0499885357105279e-01  5.8289735668435809e-02  1.5056696026381153e-01  9.9757242304624391e-02  1.1455384426339547e-01  1.1639656112614414e-02  1.2683038325554208e-01  -8.4727285519895640e-02  2.1150605728476612e-01  4.6529557895220883e-02  -2.2838193380461131e-02  -6.9633000715840776e-03  -7.3100309437509212e-02  1.4689096832409385e-02  -9.5024029227575718e-02  -4.9651848222330618e-02  -1.1828610889524270e-01  1.6902820917596931e-01  -1.3254162075996905e-02  -3.4598764553323030e-02  1.8323304202810017e-01  2.2371695764602229e-01  -1.8309065300379984e-02  1.3621994263815845e-01  9.8665397195808316e-02  3.5143687310514043e-01  -5.1592521573269490e-02  -1.1441813919705279e-01  1.4735306431568648e-01  -1.0329059831803487e-01  3.0750709502753476e-01  3.1504463698741497e-01  2.5953772326788860e-01  -7.8202952713095006e-02  -3.9296618583383180e-02  -9.6962491266364734e-02  2.6919791222091694e-01  -2.1780153967793062e-01  1.0227374468046942e-01  3.5292206303444440e-01  4.1104211072087700e-03  7.1072030432105748e-02  6.4984272808016899e-02  -9.2413445562937957e-02  -5.5149091691075208e-02  4.0811593623978612e-02  7.2180517106894770e-02  -2.4595833200288605e-01  9.4110240813912657e-02  -1.3547616535228713e-01  -1.1408739095368879e-02  1.6830115339939272e-01  3.0082004755538100e-01  -1.3049916171574305e-01  -3.7070920114459401e-02  1.2598767792026824e-01  -5.6295775897447484e-02  5.4353592804045336e-02  -1.0814751012368341e-01  6.1935162803703453e-02  2.1854648744344332e-01  5.6426761413907067e-02  -5.2752275907117278e-02  9.3325063660538138e-02  2.9778884534523271e-02  4.9637256134781184e-02  2.3645254239531674e-03  -2.2544037460489910e-02  -3.5453854825604547e-01  -1.8954080113353866e-01  1.5429516798580359e-01  -1.4807854626976852e-01  6.8974060960246469e-02  9.3078154962210724e-02  1.9178741497730126e-01  1.7375025580243486e-01  1.8047199657778762e-01  -2.7580809072850116e-02  1.3493574893070776e-01  1.1554792309238256e-01  5.9208552617925403e-02  -7.5090171021850338e-02  -1.1641502407557371e-01  -1.6720800546426606e-01  1.5386709009124647e-02  1.0710037486703487e-01  2.2313684343470921e-01  6.7801603619968592e-02  1.5210919877398010e-01  1.8518508733754313e-01  2.4307256494169432e-01  1.0243895377162693e-01  -2.8430687957826301e-02  1.9325960905894801e-01  -1.8936878273165525e-01  -5.6008059148242723e-03  3.8904096000582679e-02  -9.6148837303471527e-02  -1.9476966837519294e-01  6.8595746229741336e-02  1.3844597206182041e-01  -9.3975418764777441e-02  3.3700085341908681e-01  2.4785092144990117e-01  -6.8791958051493865e-02  -1.1599421325362175e-01  1.1128332481454384e-01  1.7213012126061786e-01  -1.1039326776210603e-01  -6.0384131631701164e-02  1.2981941208577635e-01  1.3375460960469732e-02  1.7597339995056934e-03  3.6744614499115293e-02  3.8412658977263606e-02  2.8531668703670021e-01  -7.2496729508213772e-02  5.3965149494563172e-02  2.8457460950441882e-01  1.6674146416381591e-01  -1.5827038703413523e-02  1.7275522454267028e-02  5.2285037726743110e-02  3.0728740757301060e-01  7.2595488854382967e-02  2.6926175381861350e-01  1.6594463396686249e-01  7.5446679427676189e-02  -1.7322660614359531e-01  1.9593985507148926e-01  1.8688346762486641e-01  6.6069372376005964e-02  -5.9778802466329602e-03  -5.4473030983907912e-02  3.4206756088024443e-01  1.9078234118067647e-01  -5.1582731811573419e-02  2.7330485838325203e-01  -3.3679933211490087e-01  2.4051019251486083e-01  5.7202498572356306e-02  -3.2340288385467153e-02  7.2178276145979464e-02  -2.3440079448186887e-01  -1.7792644545835534e-01  1.1447441981906056e-01  -7.7330112172388832e-02  -2.1345460049064949e-01  3.0494218141099354e-02  9.0305596471469532e-02  -8.1394108777400595e-02  -3.0583074158113070e-02  -2.1935588983350021e-01  -1.5623019933042520e-01  4.7673692133314072e-02  3.7832926082025632e-02  2.1766994952841040e-01  2.0090175566079266e-01  4.5425099256555065e-02  2.9985307731623101e-01  -1.3810679935165451e-02  -1.4846967247207191e-01  1.5973099856811440e-01  -1.1545999183060306e-02  1.7764135721458282e-01  -1.8193232303884913e-01  1.0690540473830053e-01  3.5517853776694860e-03  -6.5416781613557434e-02  -1.0604063630534263e-01  -9.0055474159040624e-02  -1.6248082430008262e-01  -1.7278802361480518e-02  1.1648965392806888e-02  3.1919497795555379e-01  -1.0597296914003412e-01  3.1732183739274528e-02  2.0587148445514886e-01  -1.1339749915769021e-01  1.4651107003127209e-01  2.6233075075267542e-01  1.0170174838976677e-01  -9.1794463356782624e-02  1.3769940214903145e-01  1.0623318887508334e-02  -7.7729675446129728e-02  -1.7312393575020660e-01  2.0938306008002235e-02  -2.2671598869952281e-02  -1.6779966190019349e-01  -2.0123954896730059e-01  3.4109703177828787e-01  -4.3403920176717542e-02  -8.8757852629425867e-03  1.6157766061004064e-01  5.6363481067823330e-02  1.2255862447470003e-01  -9.6720140609871816e-02  3.2891647603377949e-01  1.0849386060050964e-01  -3.1685215789890302e-02  -2.1094293634142608e-01  2.4875865905055641e-01  8.3975628832164001e-02  -5.3032469892461132e-02  -1.0973034574048400e-01  -1.6861003100523031e-01  -6.5126328262138627e-02  1.5021256756987370e-01  3.6151954191739166e-02  -1.8794660142108852e-01  1.0298970484601142e-01  1.6315825520074473e-01  3.3409163338458336e-01  -2.0600291008830877e-02  -1.3424883141918789e-01  2.8916558524796210e-01  1.6952725974224238e-02  -2.2369205686629045e-02  -1.1512439141796965e-01  1.4516434628745870e-01  -1.8498362780710348e-02  -1.2164284868317604e-02  5.7150307925561979e-02  2.3755841070736830e-01  2.3365716344465315e-01  2.4244670116675604e-01  8.7893128283206747e-03  -4.4160223134444435e-03  2.3769934332166797e-02  2.0218328393581286e-01  3.6310139405293575e-02  3.1767728504148518e-01  1.1895926074803387e-01  4.5295587151591474e-02  5.0174797809335051e-02  -7.7488827301261803e-02  1.3798792706095603e-01  1.3198397126996292e-01  1.0026968522658011e-01  3.3740576119935689e-01  -5.5258253794262968e-02  2.2859306976272498e-01  -1.2545680807934181e-01  -7.3719603118054550e-03  -4.6782255254270481e-02  2.0413408864833682e-01  -1.1842808598745140e-01  1.0006388432215993e-01  -5.8522461642836407e-02  1.3716128581856035e-01  5.3191745322095564e-02  1.7542497926877820e-01  1.6414725331131391e-03  -1.5138313393112354e-01  -9.5739993220602879e-02  2.0995226396680944e-01  2.5317137647526383e-01  1.8758305728311907e-02  -5.9166164460178639e-02  -1.5847281878231628e-01  2.9728238268379259e-01  -2.5057084638429500e-01  -1.5837568373343356e-02  3.9771096281101849e-02  2.8625527993205707e-01  2.0331206275520966e-01  -3.0953148005647860e-03  -3.6328659894184325e-03  -4.7127133765306126e-02  5.0898438834151988e-03  7.3278171701854036e-02  1.2495795167494082e-01  -8.4519251746211346e-02  4.7810132541807160e-02  1.5487421126097220e-01  3.0837051916816022e-01  -1.0863701501803039e-01  9.5462797835280319e-02  1.8026825748163028e-02  6.7900504109296086e-03  5.4217116392108737e-02  6.9002910200800890e-02  2.9945533072487907e-01  1.4841086056340652e-01  4.5071341049600963e-02  1.5828393055579715e-01  -1.0679919230096149e-01  2.5348379667981624e-01  3.3965131549763605e-02  1.3919520451534978e-01  -7.4535209957110479e-02  1.5922234027169610e-01  -2.3366985610212865e-01  -8.7948173492948117e-02  3.5423863142841606e-02  1.9771051312412907e-01  2.8580223567258056e-01  -1.1097842137978787e-03  1.5180832073012973e-01  1.4048772296317830e-01  1.2452555479079130e-01  -7.0305136045489070e-03  1.0243687588944640e-01  1.3206596632156103e-01  -1.7811177555849514e-01  1.8537782835918262e-01  -5.0303186024908367e-02  9.5759254920794290e-02  -6.2569495221354021e-02  -2.9052111866464797e-01  -2.1096492896970753e-01  2.1618432497649168e-02  -6.7910322927957189e-03  2.5345138430364709e-02  9.9989927501206763e-02  -3.4055704101935251e-02  1.9199419396382855e-01  -3.2729920420604713e-01  3.2390421184982837e-02  1.0626225330940012e-01  -3.2448532501217264e-02  -9.2701576142151937e-02  -6.2859536060301202e-02  -1.8056554872384264e-02  4.9131226615139613e-02  3.5833813672437237e-02  2.8937430367196541e-02  2.2302530827933237e-01  -2.0052708830438280e-02  -1.3004414657991603e-01  -1.3433455437445754e-01  -1.2411897535588415e-01  2.0380688401940625e-01  2.0387396340761768e-01  2.4623889911529157e-01  1.3725064407633197e-01  2.6976353351250082e-01  -1.3349225018032547e-02  8.2761333113190685e-02  -1.3591907152602840e-02  -1.5251482170760081e-01  -1.8698519575109690e-01  1.0802961174036681e-01  2.5927946798156115e-01  5.6416788961895697e-02  -7.3129310925155048e-03  8.7271125876817346e-02  7.5940074484363393e-02  -1.1026568802029016e-01  -1.9213064238879002e-01  -9.6114290207035075e-02  1.5255080051569872e-01  -1.5462834010063736e-01  -4.4278610575072375e-02  -2.8071667521866617e-01  -6.4530911399106286e-02  1.4109059862634463e-01  1.2075689730750883e-01  1.0949816971534986e-01  1.2809407340148551e-01  6.8177448869611842e-02  2.7444328467541318e-01  -1.3920563618160794e-01  1.4652199620079348e-01  2.2282930479828583e-01  1.8867360678534478e-02  1.7803225432793754e-01  1.8403975345454396e-01  1.4948947863751680e-01  -3.7010320948149739e-02  5.5249804174540659e-02  1.4628158779359393e-01  1.0400341701709440e-01  2.5581138326936054e-02  1.0133081323587632e-01  1.0558358778926683e-01  -1.4166999216621184e-02  -4.4272381128618171e-02  2.5743066355808173e-02  1.5869712438140238e-01  1.6283443781518414e-01  -4.5585185128923546e-02  7.0754647221807160e-02  -9.4524739381909278e-02  1.3335986371180533e-01  3.5406574779489547e-01  4.4218675308805924e-03  1.9324496030075389e-01  -1.8609848188950190e-01  -1.6657127862829982e-01  6.4532946180310691e-02  -3.1002304796363490e-02  3.1253998060571941e-01  2.2327499183306687e-01  -5.3340852535838666e-02  1.2201737565219829e-01  1.8797041286953986e-01  -7.6214376525407981e-02  3.3314350571369694e-01  