<?xml version="1.0"?>
<VTKFile type="UnstructuredGrid"  version="0.1"  >
<UnstructuredGrid>
<Piece  NumberOfPoints="4820" NumberOfCells="9262">
<Points>
<DataArray  type="Float64"  NumberOfComponents="3"  format="ascii">0.004357787137382907 0.04980973490458728 0  3.061616997868383e-18 0.05 0  -0.004357787137382901 0.04980973490458728 0  -0.004357787137382912 -0.04980973490458728 0  -9.184850993605149e-18 -0.05 0  0.004357787137382894 -0.04980973490458728 0  -0.2 -0.2 0  0.55 -0.2 0  2 -0.2 0  2 0.21 0  0.55 0.21 0  -0.2 0.21 0  0.002180969358710071 0.04995241107951016 0  -0.002180969376377175 0.04995241107873878 0  -0.00218096936205605 -0.04995241107936408 0  0.002180969376762267 -0.04995241107872198 0  -0.00681459716460041 0.04953343583362881 0  -0.009254746165878699 0.04913603233275104 0  -0.01167226821331763 0.04861849601495686 0  -0.01406125270101674 0.04798209220613614 0  -0.01641585879600313 0.04722837685110179 0  -0.01873032971283131 0.04635919271135586 0  -0.02099900679895535 0.04537666485604058 0  -0.02321634335656028 0.04428319547131056 0  -0.02537691821523419 0.04308145798249308 0  -0.02747544897576464 0.04177439052314415 0  -0.0295068049360126 0.04036518874560236 0  -0.03146601963036187 0.03885729800979068 0  -0.03334830296690066 0.03725440496408185 0  -0.03514905295182857 0.03556042852089316 0  -0.03686386691867947 0.03377951029547187 0  -0.03848855232085789 0.03191600445301051 0  -0.04001913696023074 0.02997446708380811 0  -0.04145187870654155 0.02795964505672717 0  -0.04278327464009846 0.02587646442367869 0  -0.04401006963121561 0.02373001835346012 0  -0.04512926428658137 0.02152555469556806 0  -0.04613812228218922 0.0192684631528764 0  -0.04703417705848439 0.01696426209509693 0  -0.04781523785065199 0.0146185850644164 0  -0.04847939503850856 0.01223716702101564 0  -0.04902502482533359 0.009825830289366174 0  -0.04945079319725205 0.00739047036139188 0  -0.04975565919278197 0.004937041451287537 0  -0.04993887744399172 0.002471541954727039 0  -0.05000000000000002 -2.179027782864273e-10 0  -0.04993887742290181 -0.002471542380860383 0  -0.04975565915220143 -0.004937041860259632 0  -0.04945079313853181 -0.007390470754298181 0  -0.04902502474990915 -0.009825830665689136 0  -0.04847939494791073 -0.01223716737993267 0  -0.04781523774597484 -0.01461858540679994 0  -0.04703417694176702 -0.01696426241870103 0  -0.04613812215449838 -0.01926846345863071 0  -0.04512926414810409 -0.02152555498589172 0  -0.04401006948618459 -0.02373001862243695 0  -0.04278327448542859 -0.02587646467940464 0  -0.04145187854660255 -0.0279596452938465 0  -0.04001913680095092 -0.02997446729646378 0  -0.03848855215910903 -0.03191600464806871 0  -0.03686386675419343 -0.0337795104749769 0  -0.03514905278746659 -0.03556042868335375 0  -0.0333483028093871 -0.0372544051050802 0  -0.03146601947545011 -0.03885729813523576 0  -0.02950680478964417 -0.04036518885259716 0  -0.02747544883924331 -0.04177439061293563 0  -0.0253769180845661 -0.04308145805946247 0  -0.02321634324304243 -0.04428319553082456 0  -0.02099900669895044 -0.04537666490231995 0  -0.01873032963061061 -0.04635919274457518 0  -0.01641585872377311 -0.04722837687620784 0  -0.01406125264610136 -0.04798209222222922 0  -0.01167226817214395 -0.04861849602484179 0  -0.009254746140787012 -0.04913603233747704 0  -0.006814597153124481 -0.04953343583520761 0  0.006814597163087254 -0.04953343583383697 0  0.009254746162416328 -0.04913603233340317 0  0.01167226820749043 -0.04861849601635584 0  0.01406125269526824 -0.04798209220782076 0  0.01641585878869484 -0.04722837685364205 0  0.01873032970478165 -0.04635919271460813 0  0.02099900678940205 -0.04537666486046157 0  0.02321634334324823 -0.04428319547828967 0  0.02537691819928517 -0.04308145799188777 0  0.02747544895679411 -0.04177439053562125 0  0.02950680491571239 -0.04036518876044175 0  0.03146601960788315 -0.03885729802799359 0  0.03334830294823126 -0.03725440498079377 0  0.03514905293079007 -0.03556042854168828 0  0.03686386690162479 -0.03377951031408381 0  0.03848855230703181 -0.03191600446968382 0  0.04001913694627814 -0.02997446710243633 0  0.04145187869083342 -0.02795964508001545 0  0.04278327462632659 -0.02587646444644864 0  0.04401006962056583 -0.02373001837321138 0  0.04512926427712953 -0.02152555471538427 0  0.04613812227399118 -0.01926846317250652 0  0.04703417705106056 -0.01696426211567986 0  0.04781523784312168 -0.01461858508904696 0  0.04847939503319636 -0.01223716704206073 0  0.04902502482144694 -0.009825830308758294 0  0.04945079319422288 -0.007390470381660498 0  0.0497556591909245 -0.004937041470007301 0  0.04993887744294273 -0.002471541975922472 0  0.05000000000000002 1.960026680888904e-10 0  0.04993887742406512 0.002471542357355427 0  0.0497556591543939 0.004937041838163785 0  0.04945079314184119 0.007390470732154637 0  0.04902502475403982 0.009825830645079567 0  0.04847939495309415 0.01223716735939779 0  0.04781523775084436 0.01461858539087247 0  0.04703417694693356 0.01696426240437658 0  0.04613812215952091 0.01926846344660432 0  0.04512926415455419 0.02152555497236883 0  0.04401006949386337 0.02373001860819578 0  0.04278327450092428 0.0258764646537846 0  0.04145187856220046 0.02795964527072164 0  0.04001913681616228 0.02997446727615497 0  0.03848855217730672 0.03191600462612355 0  0.03686386677147228 0.03377951045612033 0  0.03514905280168957 0.03556042866929533 0  0.0333483028196165 0.03725440509592335 0  0.03146601948352148 0.03885729812869969 0  0.02950680480117144 0.04036518884417076 0  0.02747544884918156 0.04177439060639914 0  0.02537691809390653 0.04308145805396053 0  0.02321634324922249 0.04428319552758454 0  0.02099900670813883 0.04537666489806784 0  0.01873032963827596 0.04635919274147818 0  0.01641585873206496 0.04722837687332573 0  0.01406125264532184 0.04798209222245766 0  0.01167226817007835 0.04861849602533769 0  0.009254746139683721 0.04913603233768484 0  0.006814597151967234 0.04953343583536681 0  -0.1875196675247935 -0.2 0  -0.1748316574073939 -0.2 0  -0.1619325191073485 -0.2 0  -0.1488187266915765 -0.2 0  -0.1354867190390691 -0.2 0  -0.1219328601465505 -0.2 0  -0.1081534589822707 -0.2 0  -0.09414476550972861 -0.2 0  -0.07990295838040007 -0.2 0  -0.06542416251428446 -0.2 0  -0.05070442829752772 -0.2 0  -0.03573975778997357 -0.2 0  -0.02052606446908414 -0.2 0  -0.005059208186730002 -0.2 0  0.0106650220181323 -0.2 0  0.02665090828184707 -0.2 0  0.04290281009001662 -0.2 0  0.05942514756265038 -0.2 0  0.07622242703544463 -0.2 0  0.09329921759985482 -0.2 0  0.110660176225582 -0.2 0  0.1283100240439488 -0.2 0  0.146253576648871 -0.2 0  0.1644957213272042 -0.2 0  0.1830414174264912 -0.2 0  0.2018957247245375 -0.2 0  0.2210637776854531 -0.2 0  0.2405507899571802 -0.2 0  0.2603620802338072 -0.2 0  0.2805030369240936 -0.2 0  0.3009791461642926 -0.2 0  0.3217959913512258 -0.2 0  0.3429592352388189 -0.2 0  0.3644746444814039 -0.2 0  0.3863480802046066 -0.2 0  0.4085854997083186 -0.2 0  0.4311929582382759 -0.2 0  0.4541766169094176 -0.2 0  0.4775427325114808 -0.2 0  0.5012976686781503 -0.2 0  0.5254479007761028 -0.2 0  0.5750000000714078 -0.2 0  0.6000000001173931 -0.2 0  0.6250000002059986 -0.2 0  0.6500000002385247 -0.2 0  0.675000000336103 -0.2 0  0.7000000003686291 -0.2 0  0.7250000004542437 -0.2 0  0.7500000005062106 -0.2 0  0.7750000005716368 -0.2 0  0.8000000006490264 -0.2 0  0.8250000006890297 -0.2 0  0.8500000007910944 -0.2 0  0.8750000008565204 -0.2 0  0.9000000009518555 -0.2 0  0.9250000010408349 -0.2 0  0.9500000011343006 -0.2 0  0.9750000012251494 -0.2 0  1.000000001296183 -0.2 0  1.0250000013646 -0.2 0  1.050000001466665 -0.2 0  1.075000001557888 -0.2 0  1.100000001673038 -0.2 0  1.125000001762017 -0.2 0  1.150000001851744 -0.2 0  1.175000001947827 -0.2 0  1.200000002046153 -0.2 0  1.225000002155695 -0.2 0  1.25000000221813 -0.2 0  1.275000002244301 -0.2 0  1.300000002154947 -0.2 0  1.325000002108962 -0.2 0  1.350000002019609 -0.2 0  1.375000001973624 -0.2 0  1.400000001884271 -0.2 0  1.42500000182707 -0.2 0  1.450000001748932 -0.2 0  1.475000001659579 -0.2 0  1.500000001570226 -0.2 0  1.525000001480872 -0.2 0  1.550000001391519 -0.2 0  1.575000001345534 -0.2 0  1.60000000125618 -0.2 0  1.625000001210195 -0.2 0  1.650000001120842 -0.2 0  1.675000001066632 -0.2 0  1.700000000985504 -0.2 0  1.725000000905871 -0.2 0  1.750000000850165 -0.2 0  1.775000000760812 -0.2 0  1.800000000714827 -0.2 0  1.825000000625473 -0.2 0  1.85000000053612 -0.2 0  1.875000000446767 -0.2 0  1.900000000357413 -0.2 0  1.92500000026806 -0.2 0  1.950000000178707 -0.2 0  1.975000000089353 -0.2 0  2 -0.1758823529236379 0  2 -0.1517647057870068 0  2 -0.1276470586430415 0  2 -0.103529411528254 0  2 -0.07941176439513059 0  2 -0.05529411724717925 0  2 -0.03117647008918309 0  2 -0.007058822960843009 0  2 0.01705882406928105 0  2 0.0411764710640091 0  2 0.06529411804247409 0  2 0.08941176503720205 0  2 0.11352941203193 0  2 0.137647059026658 0  2 0.1617647060111818 0  2 0.185882353005272 0  1.974999999927471 0.21 0  1.949999999833257 0.21 0  1.924999999782412 0.21 0  1.899999999688198 0.21 0  1.874999999637353 0.21 0  1.849999999543139 0.21 0  1.824999999448926 0.21 0  1.799999999354712 0.21 0  1.774999999260499 0.21 0  1.749999999166286 0.21 0  1.724999999082914 0.21 0  1.699999998977859 0.21 0  1.674999998902712 0.21 0  1.649999998789432 0.21 0  1.624999998688863 0.21 0  1.599999998581938 0.21 0  1.574999998495201 0.21 0  1.549999998413699 0.21 0  1.524999998318364 0.21 0  1.499999998273501 0.21 0  1.474999998238357 0.21 0  1.449999998189755 0.21 0  1.424999998038714 0.21 0  1.399999997975905 0.21 0  1.37499999792992 0.21 0  1.349999997902628 0.21 0  1.324999997821126 0.21 0  1.299999997699994 0.21 0  1.274999997636438 0.21 0  1.249999997681301 0.21 0  1.224999997765794 0.21 0  1.199999997857764 0.21 0  1.174999997916835 0.21 0  1.149999998014039 0.21 0  1.124999998067875 0.21 0  1.09999999816508 0.21 0  1.074999998218916 0.21 0  1.049999998316121 0.21 0  1.02499999838865 0.21 0  0.999999998467161 0.21 0  0.9749999985209969 0.21 0 
[...]
<PointData  Scalars="pressure"> 
<DataArray  type="Float64"  Name="pressure"  format="ascii">-8.0158506168533017e-01  -5.9403103072537689e-01  -7.2170381736812750e-01  -1.1079053366396425e+00  -1.1293073742854374e+00  -7.6128317148102820e-01  4.3779788387298729e-01  2.7463496735301851e-02  0.0000000000000000e+00  0.0000000000000000e+00  5.7873811867368459e-02  4.8883667103627854e-01  -6.7570893916078612e-01  -5.8082201486772167e-01  -1.2120142824024132e+00  -9.7094607489577289e-01  -7.1487438800413672e-01  -7.3433221909230295e-01  -7.4312140954402262e-01  -7.3961243462952231e-01  -7.2290357437717101e-01  -6.8912026113239955e-01  -6.4095167866039848e-01  -5.7873576094228052e-01  -4.9825920958499442e-01  -4.0036086370199298e-01  -2.8799415382954530e-01  -1.6519999751814221e-01  -3.0190618160724537e-02  1.2062287536790865e-01  2.7486282415389834e-01  4.3938493737428708e-01  6.0515871874299643e-01  7.6926227557596849e-01  9.3828641452774053e-01  1.0954862955727294e+00  1.2522938123630047e+00  1.3974331175888763e+00  1.5283859019818096e+00  1.6486228813465826e+00  1.7501481636044518e+00  1.8337244940191819e+00  1.8988755128271593e+00  1.9448532299338050e+00  1.9653509898094439e+00  1.9659679829157115e+00  1.9447778964898041e+00  1.9005694673083950e+00  1.8361767726003853e+00  1.7502428665075971e+00  1.6469192439002860e+00  1.5277128790776882e+00  1.3897780120784116e+00  1.2423680075844101e+00  1.0809955214493669e+00  9.1046376133672646e-01  7.3554020168428125e-01  5.5550589886771573e-01  3.7811938981125270e-01  2.0126556608137777e-01  2.2467880129705676e-02  -1.3652359297756936e-01  -3.0342209720146257e-01  -4.4722146160323856e-01  -5.8583939397347340e-01  -7.0567803233224502e-01  -8.1817544371114304e-01  -9.0977466014716979e-01  -9.8932913924008614e-01  -1.0532381508875694e+00  -1.0984834546508697e+00  -1.1327240228686637e+00  -1.1496345390947464e+00  -1.1593077656010105e+00  -1.1517910228467914e+00  -7.7974456480826881e-01  -7.4847094161731575e-01  -7.1403577632176907e-01  -6.7936973403400125e-01  -6.4591487192381836e-01  -6.1562080796167529e-01  -5.8769946169177978e-01  -5.6324041674510850e-01  -5.4149262926499608e-01  -5.2263086370389100e-01  -5.0650919105289338e-01  -4.9231204175733972e-01  -4.8067919917053775e-01  -4.7090722984412353e-01  -4.6228066166223852e-01  -4.5508606796270168e-01  -4.4856330267941857e-01  -4.4260696278246753e-01  -4.3665345662324112e-01  -4.3062984838205159e-01  -4.2453784122239308e-01  -4.1795542448260165e-01  -4.1096130699442313e-01  -4.0390776953129676e-01  -3.9666105831816928e-01  -3.8971904968904886e-01  -3.8325275956723687e-01  -3.7729829983205126e-01  -3.7263129792230010e-01  -3.6913969106333427e-01  -3.6680835412276841e-01  -3.6577971366363143e-01  -3.6588168454521003e-01  -3.6689031512070458e-01  -3.6868779763018661e-01  -3.7090544963185484e-01  -3.7325071378764924e-01  -3.7560597171665944e-01  -3.7773735154352578e-01  -3.7972272623592196e-01  -3.8146109165061826e-01  -3.8331056529293228e-01  -3.8537354083096936e-01  -3.8777971232323621e-01  -3.9147448106328259e-01  -3.9569180594668679e-01  -4.0259703611508424e-01  -4.1090643053660691e-01  -4.2118211515696669e-01  -4.3427707265303883e-01  -4.4962010663688867e-01  -4.6786513233745908e-01  -4.8903408239454443e-01  -5.1361268351833111e-01  -5.4187991303742600e-01  -5.7372003645990377e-01  -6.0983177785580933e-01  -6.5125906464390104e-01  -6.9487123373513893e-01  4.3715942261845231e-01  4.3623783157266965e-01  4.3409421632699191e-01  4.3088541248978135e-01  4.2572543259323975e-01  4.1823915521886207e-01  4.0750403792794276e-01  3.9311142034735841e-01  3.7385857721124338e-01  3.4960605199702927e-01  3.1976889319049706e-01  2.8341323429356119e-01  2.4318255381473233e-01  1.9750078545290425e-01  1.5013547247563411e-01  1.0256063886023468e-01  5.4945709398209926e-02  1.2805564587310995e-02  -2.6364787631627581e-02  -5.9339418883284964e-02  -8.5198308251178828e-02  -1.0473717306307909e-01  -1.1763065967951102e-01  -1.2297019925174524e-01  -1.2216210387892516e-01  -1.1577843337093553e-01  -1.0584189495875404e-01  -9.2838037563715323e-02  -7.6298300330075480e-02  -5.8747181762314173e-02  -3.8833148213837460e-02  -1.7061686827338947e-02  7.7814374148493246e-03  3.2499397921777598e-02  5.7226820712882029e-02  7.4934086453666379e-02  8.3781421301562589e-02  8.2322444245654561e-02  7.1743100928295847e-02  5.4560544986287950e-02  3.8366309829632635e-02  2.4019289460409654e-02  2.9214366315216657e-02  3.8246579617182891e-02  4.6206023740625095e-02  5.0427909989625611e-02  5.1439765605172112e-02  5.5698758449231153e-02  6.8213993072681459e-02  9.3472366887387817e-02  1.2697323876211630e-01  1.6191403150356937e-01  1.9287842521264120e-01  2.0883402272875415e-01  2.1098361510192851e-01  1.9772632349708694e-01  1.6613099807339657e-01  1.2120009825880206e-01  6.7055011677519955e-02  6.9819189202200670e-03  -3.4550044199537534e-02  -4.8763044168503113e-02  -2.8997662104200787e-02  1.2335782497770622e-02  7.0587884175438015e-02  1.2474260500229223e-01  1.6596610249988375e-01  1.9448822214569222e-01  2.0318336010847052e-01  1.9504886247681538e-01  1.6986240477623021e-01  1.3253478951875669e-01  8.3993069834262288e-02  3.1381225337533347e-02  -1.5998006518220004e-02  -5.2528311161658660e-02  -6.6850623525340630e-02  -5.9026413428382156e-02  -3.2864856107853009e-02  4.9675033551321232e-03  4.8802502699879548e-02  8.6242483171702092e-02  1.1507858979225494e-01  1.3142050304385797e-01  1.3173529401216585e-01  1.1800384598007321e-01  8.9742626933101657e-02  5.4085476797901919e-02  1.1318482744975948e-02  -3.4262572486083068e-02  -7.4505837293460386e-02  -1.0094120360644739e-01  -1.1337122483030460e-01  -1.0605471361298752e-01  -8.5913311679944745e-02  -5.8715137208889372e-02  -3.0655695350500483e-02  -1.0707639526411095e-02  0.0000000000000000e+00  0.0000000000000000e+00  0.0000000000000000e+00  0.0000000000000000e+00  0.0000000000000000e+00  0.0000000000000000e+00  0.0000000000000000e+00  0.0000000000000000e+00  0.0000000000000000e+00  0.0000000000000000e+00  0.0000000000000000e+00  0.0000000000000000e+00  0.0000000000000000e+00  0.0000000000000000e+00  0.0000000000000000e+00  0.0000000000000000e+00  2.4371424398461829e-02  5.1678205209489327e-02  8.1538519343419463e-02  1.0680756935945576e-01  1.2499476549796450e-01  1.3397896983319435e-01  1.2974015706216274e-01  1.1526696587888162e-01  8.8944947449598161e-02  5.3992870333408799e-02  1.6874035168626973e-02  -1.8087187243172351e-02  -4.7271474284694984e-02  -6.0423855608961907e-02  -5.5558604397720063e-02  -2.9697272385897405e-02  6.4338566191767732e-03  4.9968918480989388e-02  9.5227637595011433e-02  1.3200891536728845e-01  1.5820012397279165e-01  1.7276418459210990e-01  1.7090438652138540e-01  1.5428507064358668e-01  1.2252369513745372e-01  8.0233457779609801e-02  3.4024033891223750e-02  -9.3590665623595488e-03  -3.6640721021395713e-02  -3.9251605823511962e-02  -2.1423818697062825e-02  2.4209673206557453e-02  8.1791264197408314e-02  1.4262185651977302e-01  1.8956838225216474e-01  2.2281784570705712e-01  2.3364866182674629e-01  2.2042594159000733e-01  1.8689950200864741e-01  1.3348292668520748e-01  7.3394477354860252e-02  1.7448106451964967e-02  -1.8775064635342658e-02  -2.5669677883967432e-02  -5.4557505512333746e-03  2.5712543440863159e-02  6.3906790943936226e-02  9.6589637484244317e-02  1.2248751887662725e-01  1.4194052572944374e-01  1.5262424962694565e-01  1.5651670902965847e-01  1.5322148811374503e-01  1.4422253308148536e-01  1.3039137432850978e-01  1.1072737571188598e-01  8.7048555659126114e-02  2.5749617222717104e-02  -4.6554130537364629e-03  -3.4275486093677143e-02  -5.7118710874841057e-02  -7.2327784954470953e-02  -7.9232867990899902e-02  -7.8172263656005186e-02  -7.2143284700792440e-02  -6.4414316910226629e-02  -5.8349942018139575e-02  -5.3974154694181826e-02  -5.2594617016029008e-02  -5.2267515302272374e-02  -5.2127695509230763e-02  -5.1854221586877740e-02  -4.8425923395396350e-02  -4.3542249806636783e-02  -3.2162392154691841e-02  -1.8959958103561138e-02  1.8663232513293914e-03  2.7678196844745952e-02  5.7135688193804511e-02  9.3724857191542402e-02  1.3217916836022103e-01  1.7355475613368415e-01  2.1615364093312361e-01  2.5812303794460240e-01  2.9808556248411044e-01  3.3527050323219126e-01  3.6806121802194597e-01  3.9571411081367808e-01  4.1938066883655178e-01  4.3799411059872306e-01  4.5241302208950235e-01  4.6381211523450722e-01  4.7204225865018157e-01  4.7814669318168074e-01  4.8242270567745399e-01  4.8529869263889236e-01  4.8709296319256806e-01  4.8814246681752183e-01  4.8870414976331628e-01  4.8962070498008226e-01  4.9295416581926943e-01  4.9982327632726914e-01  5.1104991424499369e-01  5.2739871659107196e-01  5.4895355929324885e-01  5.7551720035262999e-01  6.0650571434188527e-01  6.4097725408285722e-01  6.7678919131032067e-01  7.1241002985412349e-01  7.4494789713671172e-01  7.7156433458552942e-01  7.9102828501501554e-01  8.0032030683040001e-01  7.9898496391566165e-01  7.8632554677648492e-01  7.6362793004580387e-01  7.3222801095742207e-01  6.9557478021429620e-01  6.5512526136612037e-01  6.1397052773422278e-01  5.7444602082235341e-01  5.3874790847711662e-01  5.0786854554106564e-01  4.8283295402564236e-01  4.6382720537903011e-01  4.5055604813110406e-01  4.4275828012948260e-01  4.3859651771454972e-01  4.3766199699182012e-01  2.5172345988992401e-02  1.8764845300931126e-02  1.4951515530535878e-02  2.2078661346945919e-02  3.5672289078550280e-02  4.3257648637968812e-02  2.6718456744427750e-02  1.4434267221279521e-03  -1.8115911579628910e-03  3.3404556885771611e-02  6.2118876236721146e-02  6.1077761952952031e-02  5.8714541328517111e-02  5.7666002929186569e-02  5.6697118606322809e-02  5.6418415839558762e-02  5.6691791588636461e-03  -7.0576387786772637e-02  -3.3714034595554540e-02  -6.9608445234281488e-03  -5.1906116080617841e-02  -4.0101419334245922e-02  -2.4405846565675327e-01  1.4773982367288022e-01  1.1696583951118560e-01  -4.4908714318325056e-02  2.0763584731444895e-01  -1.2115951664859874e-01  2.0738627673740323e-01  -3.2649446824568368e-01  2.0180647969774904e-01  -2.2919135001574420e-01  -2.1277079194258228e-01  1.5780739448672046e-01  5.1173240658318686e-02  1.3799287108124134e-01  -1.3674580113544270e-02  6.6938804536369717e-02  1.1165298941286340e-01  -3.1370092821562459e-02  1.6579755323909445e-01  -1.0952515278280381e-01  1.5587689767197739e-02  9.1892529703534995e-02  1.4643861518459220e-01  -8.3658299203744041e-02  1.0537659332192434e-01  -8.6285141056167015e-03  7.4518622456845776e-02  -8.4245697816181020e-02  -7.5642207669108855e-02  -1.1041943836737853e-02  1.2283195392847574e-02  -7.9563312434227693e-02  -7.9203883241118586e-02  1.6183080183498763e-01  -1.1599290036453862e-01  -8.2453716667705110e-02  1.8007908444757145e-01  -3.9433036077265594e-02  -1.2382159704226138e-01  1.3549554748925732e-01  1.3586255789797250e-01  -6.8948371089640428e-02  2.7556991918985706e-02  9.0253081835638585e-02  2.3637002033321994e-01  -5.4046007798108087e-02  1.9976378818614127e-01  -9.0028554470422878e-02  -3.9559118846880771e-02  -8.2851447514444121e-02  2.5759536596137983e-01  1.8515285110974378e-01  2.2248351095045515e-01  -1.2067473016178738e-01  1.1020098791349335e-01  -1.9533164218881710e-01  7.2025022547253140e-02  7.4597003877660079e-02  1.6429773502325404e-01  -4.3277744485030875e-03  9.1404692054390863e-02  -2.4782222784721114e-02  -5.0616505902231046e-02  -7.4727027640216132e-02  1.4786006944890975e-01  -1.9657981476662093e-01  8.2007860996131915e-02  1.6379299892580756e-01  -1.4984284281481242e-01  4.3472909221070964e-02  1.5325613050839904e-01  -5.7927937616175451e-03  -6.3746336222576319e-02  1.0722341283382125e-02  -8.6409710397308589e-02  1.1721411748906002e-01  -8.9799301450091448e-02  3.1689712855399878e-02  9.8419738183746719e-02  5.0558527664166276e-02  3.4637686796147982e-02  -1.9340960994508369e-01  -9.1951661899740106e-02  8.2812722842098854e-02  1.0892782444873692e-02  1.2881523873835918e-01  8.3888984365518740e-02  -2.0825129450005453e-01  8.5380301425894867e-02  -8.9768761598762833e-02  -1.7615188270376586e-01  -1.8827478499019629e-01  -7.5103157436659893e-02  -1.2435312345277338e-01  1.1598840618571914e-01  -3.4011264485285811e-02  6.7709827952965124e-02  9.8157702444876635e-02  6.6176545152554528e-02  1.1790618961890871e-01  2.4446002385196092e-02  3.0139724296660013e-03  1.8984977639854783e-01  -3.1282418219192504e-02  -9.0923219818525525e-02  5.2623329237540997e-02  7.6307416989216947e-02  1.2778292800652868e-01  -2.7490924896916180e-02  8.5083474478919327e-02  8.2026990932077090e-02  9.9575508858078893e-02  -1.0240752645102918e-01  2.7084242088590393e-02  2.5964590977101052e-02  1.9260994812127966e-01  1.5164688429015077e-01  -1.1405557391581939e-01  1.2731979212803382e-01  5.1381049272140072e-02  -7.8575589726342182e-02  2.1538371555453920e-01  2.8765443930230967e-02  -1.7570035417712324e-01  -2.1179738073266266e-01  1.1939012303327031e-02  1.3058605434042325e-01  -6.4106158736316643e-02  4.8614799402638763e-02  -3.6743914883090839e-02  -5.5437828980279186e-02  9.8716936550833953e-02  8.2459572937085779e-02  2.4340917793623171e-01  -2.8061191827692799e-02  1.2391386815734073e-02  1.0071842360681721e-01  5.1700059037953612e-02  1.2630976296146587e-02  -1.0395369590444221e-01  -8.1973712786174088e-02  5.3320595844224793e-02  1.9339510549469766e-02  4.7067797146846307e-02  -1.8725122773302844e-01  1.9082235904339864e-01  -1.8394364563129839e-01  -2.9422790371584091e-02  4.4498325500853302e-02  2.1289997642254954e-01  1.2227511818653869e-01  3.9723173472900426e-03  -8.1991200254962718e-02  1.7241769434006560e-01  -1.3962489764350175e-01  2.3292280926772604e-01  1.0376125073221168e-01  -1.9508709656268855e-01  1.6537150781158211e-01  1.8974714351727751e-01  1.6934510990610757e-01  1.5805941846179858e-01  9.4101982742256160e-02  1.0307657761547838e-02  1.1520453761917504e-01  1.5817947723301701e-01  -1.5086690685036733e-01  2.0825012676350566e-01  6.8556492907740268e-02  7.5476470086876621e-02  -8.1733145523964924e-03  -1.9045831021812726e-01  -1.1774459434681080e-01  -1.6578771081097712e-01  1.0269774759805950e-01  -2.1379530058712234e-02  1.8976173257059328e-02  4.1718824610139295e-02  1.4633624150852145e-01  -1.8807147133819282e-01  1.1885687954721551e-01  -1.2635782281685570e-01  8.3856368041343346e-02  -3.0003739803210517e-02  -9.9640323448995427e-02  6.7993858214578012e-02  -6.6897063156215977e-02  7.6689851503108197e-02  9.8127315040683671e-02  2.6766816816487990e-04  3.6580588669907523e-02  -2.0254521494024047e-01  1.4235842120393458e-01  -3.8730310267550909e-02  -1.6163350440363652e-01  1.8894183853672650e-01  -9.9245340633776324e-02  4.7934445505073690e-02  1.5430171779421664e-01  1.3128365375607318e-01  -1.0224431675793670e-01  -3.2885106999899820e-02  2.6860489412051932e-02  2.3699740678347120e-01  -7.7923957820810810e-02  -4.3674615086105005e-02  2.3528359848722558e-01  2.6535786157928642e-01  -2.3001635645679214e-02  -4.0110849123282159e-02  -5.3892992620468878e-02  -1.2897813828053284e-01  1.4088697512574380e-01  -1.3001383277198736e-01  1.0752432332344833e-01  3.2847354454525704e-02  -2.5781036881720387e-01  -1.1606284315666597e-02  1.6298466509630180e-01  -1.4216341255201112e-01  -2.9413892974370196e-02  4.7464145906647298e-03  7.4825663431834721e-02  1.8733585000206129e-01  1.3972279477802449e-01  -6.8808611471394401e-02  1.4476147286598029e-01  1.3002495373713152e-01  2.1907997358891467e-03  -1.6497946024565607e-01  5.3288799817870124e-02  1.6436885417779740e-01  1.4860725508021425e-01  -4.6050162439694446e-02  2.1537331641035454e-01  1.1864182970090577e-01  3.1592243777109820e-02  2.8507027040625164e-02  -4.8689089401708144e-02  -1.3155789350335612e-01  1.3330899516251223e-02  -1.3092246807556317e-02  -2.3692129493213150e-02  -1.8837638796360501e-01  1.2179384169970733e-01  -6.0691880627450782e-02  -5.5735534570937093e-02  -7.4126092669621751e-02  3.0691890749244388e-02  8.5169031537844303e-02  1.4278300281902770e-01  3.9496555700441943e-02  6.0112509241583297e-02  1.7471329269822322e-01  -2.4068658870837242e-02  1.3423193014211676e-01  -7.0554943349757149e-02  3.8071409071906266e-02  9.2213452920730354e-02  9.0530946087001810e-02  3.8084756844500009e-02  -2.2383218997888355e-02  2.0674115328407924e-01  3.6986492667724309e-02  2.2112279955133585e-01  4.4794949358604695e-02  1.8062457702420734e-01  -2.4804725542395695e-01  -5.9772165678144980e-02  2.2455225657954395e-02  1.4544684472793884e-01  7.6815766230403412e-02  8.9185013689923754e-03  -2.5515430698177504e-02  -1.8293411404829354e-01  7.2682645342420735e-02  -1.0581856697996155e-01  1.7745546679496582e-01  -3.2547015270417219e-03  1.5200252227047339e-01  2.3588668374448693e-01  -1.2075991634678398e-02  8.2816307068351788e-03  9.9358566337294604e-02  3.3465990010463527e-02  -5.4299367630114330e-02  9.0883715103384499e-02  1.8821529832407935e-01  -9.8320032100233073e-02  -1.8412161494813831e-01  -5.1143590078433131e-02  1.5848332582286914e-01  -1.2584783140443020e-01  5.0648125591885473e-02  1.4119254230410133e-01  5.4285162644532522e-02  -2.2310967655847971e-02  2.0294462883384191e-02  1.8861001193645843e-01  8.3600764782987204e-04  1.1043997612461914e-01  9.2883058716205252e-02  1.5786869179110766e-01  -1.2381855884253208e-01  1.3788695534183348e-01  2.6021410015268313e-02  -1.6639220944234387e-01  5.1355712393574476e-02  1.5442574034032916e-02  -1.0126511322804638e-01  2.2542118061551519e-01  1.4809295535147962e-01  -4.3094105969060145e-02  -6.1857258695795586e-02  -1.4082495764966912e-01  5.3778736668579075e-02  -1.3957091719429424e-01  -1.1698485721453576e-01  2.8671270945836172e-02  2.6169100390565775e-02  -1.8841861807681501e-01  -2.5754357382101961e-01  1.0100048536987123e-01  -4.9718633278668774e-02  -2.3333142119010813e-02  -8.9788504243815584e-02  8.4072627348166312e-02  1.4394063610217941e-01  1.1184706947719841e-01  -5.7309519367571490e-02  -1.0077450349828038e-03  2.6221783696075616e-02  -1.0144443677245535e-01  1.3594677264664570e-01  -3.0940607512934210e-01  1.7164731563262622e-01  2.7126411413272111e-02  4.9052692043504389e-02  1.9034994643678631e-02  7.3610384822234462e-02  -1.3815524035330585e-02  -4.6840534572455905e-02  4.6456066689456656e-02  2.1414632402066498e-02  -9.7002917835560989e-02  -2.3647612104499033e-01  1.3770143795590703e-01  9.1335634570247515e-02  1.2892186144978551e-01  1.0341704953421012e-01  -1.8805471774929677e-01  -2.7152000227972740e-02  -5.0409056981886149e-02  -1.0072736474710973e-01  -2.7701592854249069e-01  1.8150961808527341e-01  -5.6745356876409705e-02  1.8066768565167916e-02  1.2889598906265420e-01  2.3446124503261978e-01  -1.6084709025185390e-01  3.8760549623565496e-02  -6.0662385250669887e-02  8.8999410851390057e-02  -1.7599141166690622e-02  8.0141318401667605e-02  3.9613320233840470e-03  2.6225055467238084e-01  1.5111288813555251e-01  -1.7481388741130369e-01  3.7739243152338654e-02  -1.0035338871707954e-02  1.5851714799544617e-01  1.3659263097045954e-01  -6.8495761403455438e-02  -9.2890307154587765e-02  5.1316424977575588e-03  -4.5668543681018055e-03  -1.8516420705278022e-01  -5.5973225879097796e-02  9.1734653739074610e-03  3.0874886206511021e-02  -4.8602197281091900e-02  8.4795499548625156e-02  1.5020600507193685e-01  3.3779852760198549e-02  -1.6894591741428722e-01  -6.9986867382238627e-03  1.2139476105713733e-01  1.2548743854170155e-01  -1.1318697897295094e-01  1.2843905639196745e-01  2.4196418129031070e-03  1.0339678821939956e-01  -1.5599978446975021e-01  -5.9418045244007234e-02  -1.2174851609821451e-02  8.1416654632724517e-02  -9.0441474568470584e-02  1.3937114583563084e-02  1.5294993332993753e-01  1.2241348748674911e-01  -1.2124243166576855e-01  4.0503512932995332e-02  2.1470638225121047e-01  -2.0775582059204151e-01  8.5662878986297208e-02  6.0365784921419287e-02  1.7913085380909702e-01  9.8640097010128505e-02  -2.1321188226143782e-02  7.1533991866607055e-02  1.0479105370111348e-01  -5.7399187664501521e-02  1.3740117059984941e-01  5.760524024628