<?xml version="1.0"?>
<VTKFile type="UnstructuredGrid"  version="0.1"  >
<UnstructuredGrid>
<Piece  NumberOfPoints="4826" NumberOfCells="9274">
<Points>
<DataArray  type="Float64"  NumberOfComponents="3"  format="ascii">0.004357787137616029 0.04980973490456689 0  2.448294430073374e-13 0.05 0  -0.004357787137128233 0.04980973490460956 0  -0.004357787137605706 -0.04980973490456778 0  -2.344882876518267e-13 -0.05 0  0.004357787137138513 -0.04980973490460866 0  -0.2 -0.2 0  0.55 -0.2 0  2 -0.2 0  2 0.21 0  0.55 0.21 0  -0.2 0.21 0  0.002180969368511386 0.0499524110790822 0  -0.002180969368010819 0.04995241107910407 0  -0.002180969368502513 -0.04995241107908259 0  0.002180969368021486 -0.0499524110791036 0  -0.006814597157868607 0.04953343583455493 0  -0.009254746151924908 0.04913603233537922 0  -0.01167226819248128 0.04861849601995923 0  -0.01406125267347753 0.04798209221420657 0  -0.01641585876037609 0.04722837686348521 0  -0.01873032967049142 0.04635919272846228 0  -0.02099900674774951 0.04537666487973717 0  -0.0232163432975249 0.04428319550226104 0  -0.0253769181477669 0.04308145802223435 0  -0.02747544890327456 0.04177439057082161 0  -0.02950680486062692 0.04036518880070902 0  -0.03146601955223609 0.03885729807305569 0  -0.0333483028888871 0.03725440503391573 0  -0.03514905287103829 0.03556042860074884 0  -0.03686386684027007 0.03377951038104073 0  -0.0384885522433417 0.0319160045464898 0  -0.04001913688258778 0.02997446718746979 0  -0.04145187862754741 0.0279596451738408 0  -0.04278327456411638 0.0258764645493049 0  -0.04401006955882648 0.02373001848771415 0  -0.04512926421732728 0.02152555484076227 0  -0.04613812221762188 0.01926846330748221 0  -0.04703417700009761 0.01696426225697686 0  -0.04781523779803292 0.0146185852365256 0  -0.04847939499380464 0.01223716719811699 0  -0.04902502478771633 0.009825830477053876 0  -0.04945079316803359 0.007390470556897103 0  -0.04975565917250895 0.004937041655599784 0  -0.04993887743343513 0.002471542168028815 0  -0.05000000000000002 4.319617580295088e-13 0  -0.04993887743347691 -0.002471542167184487 0  -0.04975565917259078 -0.004937041654775128 0  -0.0494507931681559 -0.007390470556078771 0  -0.04902502478787634 -0.00982583047625548 0  -0.048479394994003 -0.01223716719733118 0  -0.04781523779827011 -0.01461858523574979 0  -0.04703417700037211 -0.01696426225621582 0  -0.04613812221792003 -0.01926846330676828 0  -0.04512926421765873 -0.0215255548400674 0  -0.0440100695591652 -0.02373001848708596 0  -0.04278327456447995 -0.0258764645487038 0  -0.04145187862791943 -0.02795964517328926 0  -0.04001913688296869 -0.02997446718696123 0  -0.03848855224374843 -0.03191600454599933 0  -0.03686386684070041 -0.03377951038057109 0  -0.03514905287149575 -0.03556042860029668 0  -0.03334830288936536 -0.03725440503348761 0  -0.03146601955271191 -0.03885729807267038 0  -0.02950680486109357 -0.0403651888003679 0  -0.02747544890375341 -0.04177439057050667 0  -0.02537691814821718 -0.0430814580219691 0  -0.02321634329799415 -0.04428319550201502 0  -0.02099900674823039 -0.04537666487951462 0  -0.01873032967097447 -0.04635919272826711 0  -0.0164158587608675 -0.0472283768633144 0  -0.01406125267397827 -0.04798209221405982 0  -0.01167226819300015 -0.04861849601983465 0  -0.00925474615244812 -0.04913603233528067 0  -0.006814597158347743 -0.04953343583448901 0  0.006814597157865879 -0.04953343583455529 0  0.009254746151927097 -0.0491360323353788 0  0.01167226819248615 -0.04861849601995805 0  0.01406125267347329 -0.04798209221420779 0  0.01641585876037412 -0.04722837686348589 0  0.01873032967049753 -0.04635919272845981 0  0.02099900674775168 -0.04537666487973616 0  0.02321634329751479 -0.04428319550226633 0  0.02537691814775486 -0.04308145802224143 0  0.02747544890326525 -0.04177439057082774 0  0.02950680486061762 -0.04036518880071581 0  0.03146601955222702 -0.03885729807306303 0  0.0333483028888813 -0.03725440503392092 0  0.03514905287103634 -0.03556042860075076 0  0.03686386684026893 -0.03377951038104196 0  0.03848855224333972 -0.03191600454649218 0  0.04001913688258468 -0.02997446718747393 0  0.04145187862754592 -0.02795964517384301 0  0.04278327456411439 -0.02587646454930818 0  0.04401006955882308 -0.02373001848772046 0  0.04512926421732501 -0.02152555484076704 0  0.04613812221761816 -0.01926846330749109 0  0.04703417700009521 -0.01696426225698355 0  0.04781523779803072 -0.01461858523653281 0  0.04847939499380377 -0.01223716719812044 0  0.04902502478771547 -0.009825830477058137 0  0.04945079316803235 -0.007390470556905473 0  0.04975565917250727 -0.004937041655616693 0  0.0499388774334346 -0.002471542168039619 0  0.05 -4.403257272689309e-13 0  0.04993887743347755 0.002471542167171875 0  0.04975565917259197 0.004937041654763091 0  0.04945079316815711 0.007390470556070629 0  0.04902502478787914 0.009825830476241509 0  0.04847939499400326 0.01223716719733013 0  0.04781523779826526 0.01461858523576567 0  0.0470341770003617 0.01696426225624468 0  0.04613812221791593 0.01926846330677807 0  0.04512926421764892 0.02152555484008794 0  0.04401006955917259 0.02373001848707224 0  0.04278327456448917 0.02587646454868855 0  0.04145187862794129 0.02795964517325684 0  0.04001913688300011 0.02997446718691929 0  0.03848855224377164 0.03191600454597132 0  0.03686386684071396 0.03377951038055631 0  0.03514905287149344 0.03556042860029895 0  0.03334830288935025 0.03725440503350112 0  0.03146601955270811 0.03885729807267346 0  0.0295068048611069 0.04036518880035816 0  0.02747544890376348 0.04177439057050004 0  0.02537691814825449 0.04308145802194713 0  0.02321634329801946 0.04428319550200175 0  0.02099900674825754 0.04537666487950205 0  0.01873032967100249 0.04635919272825579 0  0.0164158587608822 0.04722837686330929 0  0.01406125267398022 0.04798209221405924 0  0.01167226819298624 0.04861849601983799 0  0.009254746152419701 0.04913603233528602 0  0.006814597158349477 0.04953343583448876 0  -0.187519667561546 -0.2 0  -0.1748316574821168 -0.2 0  -0.1619325192212862 -0.2 0  -0.148818726846035 -0.2 0  -0.1354867192353635 -0.2 0  -0.1219328603917423 -0.2 0  -0.1081534592978099 -0.2 0  -0.09414476589796635 -0.2 0  -0.07990295884356099 -0.2 0  -0.06542416303692469 -0.2 0  -0.05070442887227664 -0.2 0  -0.03573975841838681 -0.2 0  -0.02052606515274366 -0.2 0  -0.005059208927244263 -0.2 0  0.01066502121897589 -0.2 0  0.0266509074223695 -0.2 0  0.04290280916834216 -0.2 0  0.05942514657702952 -0.2 0  0.0762224259839136 -0.2 0  0.09329921648059353 -0.2 0  0.110660175036538 -0.2 0  0.1283100227830172 -0.2 0  0.1462535753141169 -0.2 0  0.1644957199166657 -0.2 0  0.1830414159977267 -0.2 0  0.2018957233573105 -0.2 0  0.2210637763821503 -0.2 0  0.2405507887204602 -0.2 0  0.260362079066015 -0.2 0  0.2805030358280229 -0.2 0  0.3009791451426284 -0.2 0  0.3217959904068706 -0.2 0  0.3429592343744705 -0.2 0  0.3644746437000989 -0.2 0  0.3863480795092348 -0.2 0  0.4085854991020529 -0.2 0  0.4311929577241948 -0.2 0  0.4541766164908302 -0.2 0  0.4775427321916551 -0.2 0  0.5012976684604897 -0.2 0  0.5254479006641548 -0.2 0  0.5749999999999358 -0.2 0  0.5999999999998969 -0.2 0  0.6249999999998155 -0.2 0  0.6499999999998081 -0.2 0  0.6749999999997656 -0.2 0  0.6999999999997664 -0.2 0  0.7249999999997357 -0.2 0  0.7499999999996745 -0.2 0  0.7749999999995796 -0.2 0  0.7999999999995281 -0.2 0  0.8249999999994608 -0.2 0  0.8499999999994138 -0.2 0  0.8749999999993301 -0.2 0  0.8999999999992546 -0.2 0  0.9249999999991836 -0.2 0  0.9499999999990955 -0.2 0  0.9749999999990373 -0.2 0  0.9999999999989423 -0.2 0  1.024999999998847 -0.2 0  1.049999999998752 -0.2 0  1.074999999998672 -0.2 0  1.099999999998649 -0.2 0  1.124999999998554 -0.2 0  1.149999999998545 -0.2 0  1.174999999998451 -0.2 0  1.199999999998416 -0.2 0  1.224999999998348 -0.2 0  1.249999999998288 -0.2 0  1.274999999998288 -0.2 0  1.299999999998246 -0.2 0  1.324999999998369 -0.2 0  1.349999999998394 -0.2 0  1.37499999999845 -0.2 0  1.399999999998551 -0.2 0  1.424999999998531 -0.2 0  1.449999999998684 -0.2 0  1.474999999998642 -0.2 0  1.499999999998804 -0.2 0  1.524999999998773 -0.2 0  1.549999999998885 -0.2 0  1.574999999999013 -0.2 0  1.599999999999079 -0.2 0  1.624999999999119 -0.2 0  1.649999999999211 -0.2 0  1.674999999999224 -0.2 0  1.699999999999321 -0.2 0  1.724999999999342 -0.2 0  1.749999999999427 -0.2 0  1.774999999999474 -0.2 0  1.799999999999533 -0.2 0  1.824999999999605 -0.2 0  1.849999999999639 -0.2 0  1.874999999999735 -0.2 0  1.899999999999745 -0.2 0  1.924999999999841 -0.2 0  1.949999999999869 -0.2 0  1.974999999999947 -0.2 0  2 -0.1758823529412649 0  2 -0.1517647058824698 0  2 -0.12764705882371 0  2 -0.103529411764951 0  2 -0.07941176470620959 0  2 -0.05529411764745706 0  2 -0.03117647058865336 0  2 -0.007058823529918185 0  2 0.01705882352889865 0  2 0.04117647058779714 0  2 0.06529411764668486 0  2 0.08941176470558332 0  2 0.1135294117644398 0  2 0.137647058823337 0  2 0.1617647058822356 0  2 0.185882352941134 0  1.975000000000015 0.21 0  1.950000000000055 0.21 0  1.925000000000061 0.21 0  1.90000000000011 0.21 0  1.875000000000116 0.21 0  1.850000000000166 0.21 0  1.825000000000172 0.21 0  1.800000000000206 0.21 0  1.775000000000227 0.21 0  1.750000000000322 0.21 0  1.725000000000369 0.21 0  1.700000000000375 0.21 0  1.675000000000454 0.21 0  1.650000000000517 0.21 0  1.62500000000057 0.21 0  1.600000000000658 0.21 0  1.575000000000687 0.21 0  1.550000000000789 0.21 0  1.525000000000806 0.21 0  1.500000000000905 0.21 0  1.475000000001007 0.21 0  1.450000000001109 0.21 0  1.42500000000121 0.21 0  1.400000000001312 0.21 0  1.375000000001406 0.21 0  1.350000000001428 0.21 0  1.32500000000153 0.21 0  1.300000000001554 0.21 0  1.275000000001647 0.21 0  1.250000000001522 0.21 0  1.225000000001572 0.21 0  1.200000000001437 0.21 0  1.175000000001446 0.21 0  1.15000000000137 0.21 0  1.125000000001303 0.21 0  1.100000000001302 0.21 0  1.075000000001145 0.21 0  1.050000000001136 0.21 0  1.025000000000966 0.21 0  1.000000000000931 0.21 0  0.9750000000008732 0.21 0  0.9500000000008135 0.21
[...]
<PointData  Scalars="pressure"> 
<DataArray  type="Float64"  Name="pressure"  format="ascii">-8.8954118490361167e-01  -3.2886307497645734e-01  -5.3100548797490754e-01  -1.6087179864921319e+00  -1.6895218231835294e+00  -9.4164903703794967e-01  4.0226726843184041e-01  1.0249646230110372e-01  0.0000000000000000e+00  0.0000000000000000e+00  3.3419207457990724e-01  6.0668014062056630e-01  -5.6272931338967802e-01  -2.7730608046166488e-01  -1.8671235627469385e+00  -1.3627702649812230e+00  -4.8000585027757886e-01  -5.0138898501466289e-01  -5.1237695316914955e-01  -5.1092733953420921e-01  -4.9694886215662892e-01  -4.6581955622621374e-01  -4.2043893890331746e-01  -3.6116942928677070e-01  -2.8395873929056265e-01  -1.8970899639563626e-01  -8.1453810118998493e-02  3.7143501928207645e-02  1.6736515721538919e-01  3.1260126428188872e-01  4.6100484821101323e-01  6.1882968259955373e-01  7.7745088183394218e-01  9.3379321083801159e-01  1.0944279300801900e+00  1.2425416519513668e+00  1.3900960992081235e+00  1.5235681838597785e+00  1.6445934481608939e+00  1.7531052556991618e+00  1.8426088350900196e+00  1.9138806323222652e+00  1.9659821956003474e+00  1.9986553250144030e+00  2.0055897639343305e+00  1.9923297010817378e+00  1.9570664414875525e+00  1.8985304242193941e+00  1.8197979574820760e+00  1.7192277414172676e+00  1.6013304075439858e+00  1.4680312705472831e+00  1.3149146546928980e+00  1.1530697445218570e+00  9.7645972002895187e-01  7.9063460823448939e-01  6.0034136152373507e-01  4.0463017776506477e-01  2.1145065746242628e-01  1.8444349976857167e-02  -1.7777350426123656e-01  -3.5304373129332361e-01  -5.3670172787651571e-01  -7.0032745635156757e-01  -8.5505302765855640e-01  -9.9887430176139724e-01  -1.1302376497139057e+00  -1.2423630882517758e+00  -1.3468125873530636e+00  -1.4280786788132667e+00  -1.5013160066259670e+00  -1.5562236316695912e+00  -1.5970973265941935e+00  -1.6290386153136445e+00  -1.6439356610484430e+00  -1.0270796180949715e+00  -1.0082860451975439e+00  -9.7902297119440773e-01  -9.4629177553915655e-01  -9.1154424314515214e-01  -8.7799298728032960e-01  -8.4558784513528851e-01  -8.1588540647513330e-01  -7.8838684443957197e-01  -7.6421812958758573e-01  -7.4280348596592594e-01  -7.2540245053588326e-01  -7.1175214734789038e-01  -7.0134725477485715e-01  -6.9428447129958482e-01  -6.8965299504929711e-01  -6.8710145189863014e-01  -6.8505087995668890e-01  -6.8296137694340220e-01  -6.8036649383891901e-01  -6.7448634833758081e-01  -6.6720989135546049e-01  -6.5612674401672610e-01  -6.4165558189774263e-01  -6.2433913117208728e-01  -6.0274425197865322e-01  -5.7907328166495164e-01  -5.5263784826644546e-01  -5.2506590141807452e-01  -4.9711255591102954e-01  -4.6925769328498873e-01  -4.4301587159919503e-01  -4.1868436770649481e-01  -3.9584152853409060e-01  -3.7626996140878416e-01  -3.5887962610847995e-01  -3.4372774019981417e-01  -3.3111619360094602e-01  -3.2076499924560420e-01  -3.1258284051378626e-01  -3.0696390765132309e-01  -3.0374898117632343e-01  -3.0331918120631302e-01  -3.0537563384524091e-01  -3.1001781209234286e-01  -3.1719012005208247e-01  -3.2632677033895147e-01  -3.3731612011313722e-01  -3.4949449536235078e-01  -3.6350130821973814e-01  -3.7883693181934169e-01  -3.9688997337010934e-01  -4.1748246369156877e-01  -4.4196145518265961e-01  -4.7027781061313778e-01  -5.0354058551844050e-01  -5.4213224404970395e-01  -5.9034310218158892e-01  -6.3861311856034098e-01  4.0167248301858677e-01  4.0083494837752065e-01  3.9871582754743989e-01  3.9540799599134552e-01  3.8989238308022278e-01  3.8170136732548365e-01  3.6982586477885077e-01  3.5390464145649220e-01  3.3280134387504934e-01  3.0663641187436269e-01  2.7530865021709883e-01  2.3838237780643695e-01  1.9908840027210112e-01  1.5681070079714451e-01  1.1548672934120459e-01  7.7308691829446899e-02  4.4487905120089086e-02  1.7850478662242049e-02  -4.6916819664937604e-04  -1.0854334435674570e-02  -1.1994285892902364e-02  -4.7256174098934765e-03  1.2055445270078818e-02  3.5550765894434865e-02  6.9945399259212795e-02  1.1413897088167432e-01  1.6547100351570501e-01  2.2407156207103876e-01  2.8207701354703901e-01  3.3421714099499877e-01  3.7865135561108576e-01  4.0480928496654994e-01  4.1460761451775030e-01  3.9963242748090527e-01  3.6643016125743322e-01  3.1463544383777980e-01  2.6280253525775782e-01  2.1402856639955245e-01  1.7802986619743816e-01  1.4711106998425327e-01  1.2333791935215684e-01  9.3524761299821235e-02  1.0741003450137072e-01  1.5267390059014513e-01  2.0536113040590420e-01  2.5870002718714796e-01  2.9641231822235942e-01  3.1558164857828658e-01  3.1527753102249129e-01  3.0147500879961631e-01  2.7554420109719407e-01  2.4168823747748414e-01  2.0144374121244549e-01  1.4827863260649271e-01  8.6914301127312327e-02  3.0761023368835360e-02  -1.0340752057199167e-02  -1.4002873338959882e-02  1.9125155402995163e-02  8.1126020028962464e-02  1.4655504646531295e-01  2.0109445898016248e-01  2.4132515247285483e-01  2.5859734609163204e-01  2.5807261082855798e-01  2.3841296690661531e-01  2.0032079484423415e-01  1.5126699025470161e-01  9.2918041271506505e-02  3.5340410620575927e-02  -1.6780782048480557e-02  -4.7313716837927240e-02  -5.5178618320413424e-02  -3.8708865484807106e-02  -7.1058965602986170e-04  4.3470199195751603e-02  8.8166056062313508e-02  1.2926116208546740e-01  1.5469232129306637e-01  1.6479378038134779e-01  1.6099329720056929e-01  1.4011288310736178e-01  1.0769136613780890e-01  6.7020265455680544e-02  2.0230737118133352e-02  -2.4082443846223777e-02  -6.1127422913847616e-02  -8.1552131558897595e-02  -8.3454863098479659e-02  -6.6592360653543570e-02  -3.7523326992928069e-02  -5.2768117843290732e-03  2.7204142577810078e-02  5.0280610948506770e-02  6.2429030240569158e-02  6.1443516447349120e-02  4.8516178865319150e-02  2.7429756304401354e-02  0.0000000000000000e+00  0.0000000000000000e+00  0.0000000000000000e+00  0.0000000000000000e+00  0.0000000000000000e+00  0.0000000000000000e+00  0.0000000000000000e+00  0.0000000000000000e+00  0.0000000000000000e+00  0.0000000000000000e+00  0.0000000000000000e+00  0.0000000000000000e+00  0.0000000000000000e+00  0.0000000000000000e+00  0.0000000000000000e+00  0.0000000000000000e+00  -2.2603827583447061e-02  -4.0865909766068943e-02  -4.5184219954820332e-02  -3.7868241680020898e-02  -1.5271176514788029e-02  1.6386027876021499e-02  5.0211345514858410e-02  8.3838582361502823e-02  1.1097174173031800e-01  1.2490846147834796e-01  1.3059779736129443e-01  1.2385032077341578e-01  1.0296147187466800e-01  7.2982486680358852e-02  3.7348652828940121e-02  -1.5942217028631334e-03  -3.4472932540281338e-02  -5.6946181708694747e-02  -5.4375990320947171e-02  -3.7563863191453863e-02  -1.5616860146690811e-04  4.7525792380951705e-02  9.5917457361571576e-02  1.4220424216187202e-01  1.7806226058892460e-01  1.9858502120201466e-01  2.0750914586832986e-01  1.9571856187562095e-01  1.6913545078586045e-01  1.2537051462285229e-01  7.5401737738544597e-02  2.2325005084292346e-02  -2.1543115817796821e-02  -4.0094229252359254e-02  -2.5477757051230468e-02  1.8554716194560641e-02  8.7453080288573196e-02  1.5627453940030037e-01  2.2045391061222491e-01  2.6994537318023165e-01  3.0034191490794232e-01  3.1699682426331866e-01  3.1067105110998627e-01  2.8277281294636214e-01  2.2418209978561296e-01  1.5193101299428777e-01  8.1323142491261213e-02  3.9298233797921217e-02  3.5116785914321685e-02  6.0753637677654702e-02  1.0114431619470125e-01  1.4979081650177992e-01  1.9420744117014901e-01  2.3299417993265237e-01  2.6482772047674841e-01  2.9438268549318353e-01  3.1788438001767227e-01  3.3978353789724630e-01  3.2783090717641550e-01  2.9900819346406537e-01  2.6040334804952592e-01  2.1344219131618208e-01  1.6411427344867885e-01  1.1519856698572009e-01  7.9356475090014492e-02  5.3483296213322547e-02  4.5499810784179133e-02  5.3531535884346573e-02  7.4444624912077831e-02  1.0068949348691876e-01  1.3023847383182738e-01  1.5791320282123103e-01  1.8088510159718069e-01  2.0033199948346811e-01  2.1755731334762235e-01  2.3379894665850959e-01  2.5021597926877714e-01  2.6815986974554384e-01  2.8870264480178220e-01  3.1242789122319775e-01  3.3865789199386120e-01  3.6805725743334800e-01  3.9893077565076107e-01  4.2993043161700933e-01  4.6033607617412886e-01  4.8812812298177766e-01  5.1313721092730213e-01  5.3405903766212681e-01  5.5185421636081711e-01  5.6589501427457012e-01  5.7679630589606645e-01  5.8554499828099293e-01  5.9192053225135743e-01  5.9694841102038554e-01  6.0051856603334330e-01  6.0311414045624645e-01  6.0484585596313178e-01  6.0593529376604904e-01  6.0657759227509067e-01  6.0739239598605965e-01  6.1026969250223539e-01  6.1615819808093486e-01  6.2577025624931149e-01  6.3973244262748530e-01  6.5808482684444081e-01  6.8053946766019491e-01  7.0648935971032534e-01  7.3493117993150925e-01  7.6375889400984809e-01  7.9149537584470375e-01  8.1531763301534421e-01  8.3256421561258176e-01  8.4196020590135701e-01  8.4208829528606255e-01  8.2925331949292469e-01  8.0688393532186153e-01  7.7465185175321039e-01  7.3447425363151941e-01  6.8996537696441784e-01  6.4237938404459871e-01  5.9557312480189384e-01  5.5117675592410353e-01  5.1164136269016203e-01  4.7782301789993192e-01  4.5059488441703704e-01  4.3007631065702762e-01  4.1580439024567495e-01  4.0746709424011729e-01  4.0305991409309500e-01  4.0210343544286381e-01  9.9498890253407093e-02  8.7024805360371146e-02  6.2733797664830906e-02  1.3825739775897761e-02  -5.2047748279288299e-02  -1.0661986748060079e-01  -1.1004126709656468e-01  -6.0466167165884745e-02  2.2402009307014241e-02  1.2395440196595706e-01  2.2386128924707399e-01  2.9792620179269413e-01  3.3677127868444490e-01  3.5611687098765193e-01  3.4947812517385296e-01  3.3799965785607011e-01  2.3457427387438581e-02  -8.7598826261942611e-02  -3.8797648586736372e-02  -7.5992946357831617e-03  -1.3284114204710440e-01  3.5356180328151271e-02  -3.9742914810904938e-02  1.6178426743858507e-01  -2.6111492565545608e-01  1.4517718928360185e-01  1.7380617837640353e-01  -1.7485404013239747e-01  -1.3261863206176949e-01  -8.0011558034036562e-02  1.7717887248203021e-01  5.8363436621888747e-02  7.3396744596690600e-02  1.9529772588887132e-01  -6.1198168973825059e-02  1.6284952171626990e-01  -1.8660223951684729e-01  -1.9460008588145719e-01  1.5280805689537069e-01  1.0536022788342080e-01  -1.2085797803346492e-01  -1.0602630683217776e-01  2.8371871793243392e-01  -6.9420987606822596e-02  -1.6346650064317314e-01  -6.1447546450256303e-02  -6.5349285858128631e-02  2.1278035900195469e-01  3.3059331646847651e-01  3.4152489801007130e-01  -2.0191205915684397e-02  -9.0024707549148333e-02  -9.2913131894658260e-02  -5.5220365240823840e-02  -3.9299760235826826e-02  -6.2619451581722038e-02  8.8709303559094968e-02  -7.2595745315730556e-02  -1.7035760651161764e-02  5.1329586152687692e-02  9.7572236858280616e-03  -1.2564882835972713e-01  -7.2151353728592245e-03  1.4204064210368383e-01  6.6941999597517052e-02  -8.3743419295438742e-02  2.7230187133297062e-01  8.5107630385042446e-02  1.9313495679023340e-01  -4.8459700515878078e-02  -1.0708957264024543e-01  7.8550153820496321e-02  1.1490061668562362e-01  -1.2760121992232912e-01  -3.7644907196786218e-02  2.4593993444410925e-01  1.9893742560482672e-01  1.1237377602742478e-01  -7.9800352387531262e-02  2.2022276856568410e-02  1.3907707558150820e-01  -1.8276724675310097e-02  1.6045037357883796e-01  -2.4156496382600376e-01  -2.5906568487581139e-01  2.9751507426773762e-02  1.6413388136191470e-01  -1.5373458948353858e-01  -5.0932660425268594e-01  7.1807312800329232e-02  -1.5466652376510260e-02  1.8549507045682995e-01  3.0649150840106821e-02  -2.0092913651304577e-02  2.1434041243484658e-01  -9.7652720280817409e-02  -3.6001468834410155e-01  1.7794924990941902e-01  1.1790601013662994e-01  3.1049660226301401e-01  -2.1161374860918375e-01  -8.0058618411437705e-03  3.7748677226075694e-02  2.1749111247093500e-01  -8.6982862192571037e-02  2.8143413783017901e-01  1.6279852700182426e-01  8.8290894734612008e-03  -1.0412996401339464e-01  6.7301182027737355e-02  1.4435057607413743e-01  1.2697644356532675e-01  2.4766901235651845e-01  -1.3165820111228940e-01  -1.6107434154722011e-01  4.4573186398877453e-02  3.1569302389565695e-01  1.5330566903973517e-01  1.2542722596668904e-02  1.3190272228225972e-01  -1.2538426422103519e-01  -1.0979458278136502e-01  -7.0928517671573779e-02  -6.3907767124335685e-02  1.2853195012386603e-01  -3.1117421910810919e-02  -6.2235752041468508e-02  -3.7244388269408416e-02  -3.3094038490956962e-02  1.3823870080634243e-01  -9.2790467812496322e-02  -6.7873561393574141e-03  -3.6420621991074979e-02  -3.0551147635513625e-02  -3.8433972523042981e-02  -5.2637322046511448e-02  2.7844054347675834e-01  -7.7453783214186098e-02  6.7586146949747003e-02  2.2307223345116176e-01  5.4800485073290800e-02  -3.4305102180563297e-02  1.7531865805423394e-01  1.1775998138614360e-01  1.8433267009799231e-01  -1.9963899004706565e-01  -2.5498973353188314e-01  -1.7119373667648576e-02  -2.0470870550752623e-01  5.0125147288253097e-02  2.5372520148725541e-01  9.5844241044731146e-02  5.5019805347315584e-02  8.0908530071054072e-02  5.5433032936117170e-02  -1.0792425124386089e-01  2.8407854988212700e-01  -1.6870880710313982e-01  7.6935874915870492e-02  -1.2425154762451679e-02  -1.1215860949483773e-01  3.2634992901883042e-01  -5.7903271220282118e-03  7.8901219536713044e-02  -2.0568767810003405e-01  -3.1704654668185939e-01  8.7926720379247359e-03  2.5849964571865752e-01  4.5774778404350736e-02  8.4395350142617370e-02  7.5577864306632311e-02  2.2705497469499045e-01  1.6291849146039039e-01  -8.9978166843135601e-02  -1.2966966785937745e-01  2.6460819144671754e-01  7.3205016435076743e-03  8.3898307495668845e-02  3.3361321389593473e-01  -1.5608760247239660e-02  6.6236034565207588e-02  3.0768562077312395e-01  -1.3761969323875245e-01  -1.9815892318599093e-01  1.9868029161070669e-01  -3.8079734587611339e-02  1.8005696579488800e-01  1.0205098305988200e-01  5.3182026277267813e-02  5.8691612192410064e-02  -1.2231153481120478e-02  -6.2710011344417574e-02  -1.8947839181654982e-01  -2.0265751366139190e-01  4.3756626589398363e-02  1.3728817206072963e-01  -3.4087370532370619e-02  -2.4540323169462311e-01  1.8289773937649045e-01  3.6353169647959527e-03  1.5415564647691326e-02  7.9166669404945156e-02  -4.3621206920352255e-02  3.1159149734415786e-01  4.7364654630916721e-02  -1.9048055757692747e-02  -1.7522596799401755e-02  -2.1950072134858054e-01  -4.9367225148066227e-02  8.7884259126130224e-02  2.1728842398647913e-01  -1.9680581576861422e-02  2.7922502987069865e-02  -9.5365431320906843e-02  1.1539994324152236e-01  -1.2108993775384720e-01  7.3569341703681401e-02  -2.8238357027600407e-02  5.9212382233434412e-02  -1.0095852092747885e-01  8.7468869452441353e-02  6.1398401823271116e-02  8.0685624705123873e-02  1.0979224022136250e-02  3.0542125311515064e-02  2.4900308463889134e-01  -1.4990463368348044e-02  -4.1278581095462841e-02  -1.2499478300343060e-01  1.1585180252743795e-02  -2.2790407239044380e-02  -1.3258922360509690e-01  1.0064446334276381e-01  -1.2263450670959768e-01  2.4075644093780918e-01  1.6836175010624788e-01  2.5889537522942047e-01  -1.0263238100986155e-01  -2.5162366469365499e-01  -5.5590505603519552e-02  3.1456713671086649e-02  1.0885059445247330e-01  1.8829002925311406e-01  -1.5920859094501233e-01  -1.9319955290602323e-01  1.9108910098180740e-01  -1.2804802846699914e-01  6.0093652786591380e-02  1.4510010999276353e-02  -2.5673532710084679e-01  2.3594325041935810e-01  1.3677594861544048e-01  1.7260279639737239e-01  1.3276025698853677e-01  2.5554899097848977e-01  -2.6332005941437764e-01  2.0413152813390698e-01  7.5232388050862437e-02  3.0981314818321726e-01  -4.1193400552679249e-01  -2.2960312343847783e-01  -3.6196539682929442e-02  -2.4126943187040784e-02  1.5300956034043842e-01  2.1791443049672096e-01  -1.6077205128786385e-02  1.9688446067406556e-01  -1.2032299680844633e-01  1.0499864102192229e-01  -6.6827055881678324e-02  6.2798692819128277e-03  -8.2718316212764736e-02  -1.4947122478358945e-02  2.6369197859991378e-01  2.0436671262158704e-02  -7.7157781773469852e-02  1.6586995127436838e-01  -6.7001555547195807e-02  2.3240093239487125e-01  3.0689025493450057e-02  8.0584443593334526e-02  1.2383180834009825e-02  -1.0605824453115122e-01  6.9689620375708403e-02  2.6344981953959806e-01  1.3747281345954379e-01  1.7941232641661017e-01  5.0553877262241455e-02  2.6703682195472200e-01  3.9689432175564518e-02  -1.1625255336903392e-01  1.2908413891948031e-01  -1.5575466596726675e-01  1.4601422853197116e-01  1.7975949889647536e-01  -4.8076655985221164e-02  -4.8427652460085999e-02  -2.9112570048382767e-02  -1.0287705417159720e-01  -1.7060801516536567e-01  -6.0475834927975022e-02  3.2289923124979553e-01  -5.8842106513353988e-03  5.1961055902510565e-02  9.5816757624558588e-02  -6.6299034015725858e-02  3.3430568880659331e-02  2.1818827758230266e-02  9.6602416150299034e-02  2.5080925675166804e-01  -1.2060420383635724e-02  -8.5230034985689138e-02  6.6222846412073919e-02  4.6731158443682037e-02  -3.4115575754328720e-01  3.9370031973853539e-02  1.7869939515119621e-01  -2.0785210417174343e-01  -2.6320217100115639e-01  3.0787895151556055e-02  1.5831787187943538e-01  1.6434651378916257e-01  -8.0949510732978971e-02  -9.7225733254455812e-02  -1.7564810007675469e-01  -5.2241486364590639e-02  3.2334879925489876e-02  1.3546940692890205e-01  6.4592949222659179e-02  9.8014466189899299e-02  -3.8031662816398422e-02  2.8750587598646227e-01  -1.1155611034241916e-01  2.1555761019118164e-01  -1.4903127856859319e-01  -1.4784145431247825e-01  1.7325697384781510e-01  1.7600418617893235e-01  -5.5537954905348665e-02  2.9031285559393927e-01  1.3321147114046808e-01  8.2837793270599286e-02  -6.1992557112582657e-03  -2.8198482516633055e-01  2.6574014317841532e-01  9.0829238000085209e-03  -1.2170499611215831e-01  6.5145265235207764e-02  2.8898902006608612e-01  1.2051910147532131e-01  -3.7564448721261960e-02  3.2467506016982539e-01  -2.3412972352067490e-01  1.2523972599964414e-01  1.5992348953662952e-01  2.5024505456723863e-02  -9.9834385674227838e-02  1.3833427473767802e-02  1.6671527919210710e-01  1.7676509166978219e-02  -2.7343993069294087e-01  2.7072157454515322e-01  1.6725575784766603e-01  8.6906174492423424e-02  1.1381873225471745e-04  -5.3004820968363210e-02  -1.1217544353618494e-01  4.4360322044638578e-02  3.4217173356064801e-01  9.6453706394709737e-02  -1.2466235405543560e-01  -3.8757506753439946e-02  2.3456533339204080e-01  -1.4155658231876395e-01  1.3531200913878694e-01  -2.3239517188742592e-02  -4.8921928501307825e-02  7.7498319987298850e-02  -7.6429606603595060e-02  6.4642727857845930e-02  3.2723767907194162e-01  -1.3728512872133419e-04  -9.8911879894261090e-02  3.0244024769168021e-01  -5.9664273451673300e-02  7.8882308896552122e-02  -4.8529932277679225e-03  2.0757096796424840e-01  1.3100217901735149e-02  3.1237188074938943e-01  1.1318378189450808e-01  1.8049989050145029e-01  8.9179389130815717e-02  -6.3646328136074751e-02  1.3022866089890603e-01  2.7454004120153952e-01  1.9967999416276402e-01  1.0365263211700820e-01  4.9954443058622669e-03  -1.9415428522771427e-01  1.3435069970202648e-01  -3.8269491513293924e-02  1.5941142469780967e-01  9.3696626260622209e-02  -7.7699433164141213e-02  -3.2043585242436140e-02  -4.7823414547063542e-02  8.4676018673722805e-02  1.9737185355752591e-02  -1.3903632156157147e-01  1.1121424712376299e-01  -6.2786679291739672e-02  1.1699619519026533e-02  -2.9817776464575552e-02  -2.4832094895049156e-01  -8.7238915047527038e-02  -4.9784180637418582e-03  -2.6312031844520717e-01  -8.7016055698993067e-02  -2.7274777510129328e-02  -2.1480117746079781e-02  2.0166234551902770e-01  1.2167970629610433e-01  -8.9144218154517549e-02  -6.6553154322547922e-02  -2.4880645273079877e-01  5.4009242436957643e-02  -1.9138109026343819e-01  -1.7572143755747299e-01  -1.3760112957063869e-01  3.5938042424661053e-02  1.2817277584445724e-01  2.8716478775733356e-01  -8.2152113475194591e-02  -7.9177102879206790e-02  2.3310647368244897e-01  -1.5912140831013946e-01  -2.4122292777316878e-02 