<?xml version="1.0"?>
<VTKFile type="UnstructuredGrid"  version="0.1"  >
<UnstructuredGrid>
<Piece  NumberOfPoints="4826" NumberOfCells="9274">
<Points>
<DataArray  type="Float64"  NumberOfComponents="3"  format="ascii">0.004357787137616029 0.04980973490456689 0  2.448294430073374e-13 0.05 0  -0.004357787137128233 0.04980973490460956 0  -0.004357787137605706 -0.04980973490456778 0  -2.344882876518267e-13 -0.05 0  0.004357787137138513 -0.04980973490460866 0  -0.2 -0.2 0  0.55 -0.2 0  2 -0.2 0  2 0.21 0  0.55 0.21 0  -0.2 0.21 0  0.002180969368511386 0.0499524110790822 0  -0.002180969368010819 0.04995241107910407 0  -0.002180969368502513 -0.04995241107908259 0  0.002180969368021486 -0.0499524110791036 0  -0.006814597157868607 0.04953343583455493 0  -0.009254746151924908 0.04913603233537922 0  -0.01167226819248128 0.04861849601995923 0  -0.01406125267347753 0.04798209221420657 0  -0.01641585876037609 0.04722837686348521 0  -0.01873032967049142 0.04635919272846228 0  -0.02099900674774951 0.04537666487973717 0  -0.0232163432975249 0.04428319550226104 0  -0.0253769181477669 0.04308145802223435 0  -0.02747544890327456 0.04177439057082161 0  -0.02950680486062692 0.04036518880070902 0  -0.03146601955223609 0.03885729807305569 0  -0.0333483028888871 0.03725440503391573 0  -0.03514905287103829 0.03556042860074884 0  -0.03686386684027007 0.03377951038104073 0  -0.0384885522433417 0.0319160045464898 0  -0.04001913688258778 0.02997446718746979 0  -0.04145187862754741 0.0279596451738408 0  -0.04278327456411638 0.0258764645493049 0  -0.04401006955882648 0.02373001848771415 0  -0.04512926421732728 0.02152555484076227 0  -0.04613812221762188 0.01926846330748221 0  -0.04703417700009761 0.01696426225697686 0  -0.04781523779803292 0.0146185852365256 0  -0.04847939499380464 0.01223716719811699 0  -0.04902502478771633 0.009825830477053876 0  -0.04945079316803359 0.007390470556897103 0  -0.04975565917250895 0.004937041655599784 0  -0.04993887743343513 0.002471542168028815 0  -0.05000000000000002 4.319617580295088e-13 0  -0.04993887743347691 -0.002471542167184487 0  -0.04975565917259078 -0.004937041654775128 0  -0.0494507931681559 -0.007390470556078771 0  -0.04902502478787634 -0.00982583047625548 0  -0.048479394994003 -0.01223716719733118 0  -0.04781523779827011 -0.01461858523574979 0  -0.04703417700037211 -0.01696426225621582 0  -0.04613812221792003 -0.01926846330676828 0  -0.04512926421765873 -0.0215255548400674 0  -0.0440100695591652 -0.02373001848708596 0  -0.04278327456447995 -0.0258764645487038 0  -0.04145187862791943 -0.02795964517328926 0  -0.04001913688296869 -0.02997446718696123 0  -0.03848855224374843 -0.03191600454599933 0  -0.03686386684070041 -0.03377951038057109 0  -0.03514905287149575 -0.03556042860029668 0  -0.03334830288936536 -0.03725440503348761 0  -0.03146601955271191 -0.03885729807267038 0  -0.02950680486109357 -0.0403651888003679 0  -0.02747544890375341 -0.04177439057050667 0  -0.02537691814821718 -0.0430814580219691 0  -0.02321634329799415 -0.04428319550201502 0  -0.02099900674823039 -0.04537666487951462 0  -0.01873032967097447 -0.04635919272826711 0  -0.0164158587608675 -0.0472283768633144 0  -0.01406125267397827 -0.04798209221405982 0  -0.01167226819300015 -0.04861849601983465 0  -0.00925474615244812 -0.04913603233528067 0  -0.006814597158347743 -0.04953343583448901 0  0.006814597157865879 -0.04953343583455529 0  0.009254746151927097 -0.0491360323353788 0  0.01167226819248615 -0.04861849601995805 0  0.01406125267347329 -0.04798209221420779 0  0.01641585876037412 -0.04722837686348589 0  0.01873032967049753 -0.04635919272845981 0  0.02099900674775168 -0.04537666487973616 0  0.02321634329751479 -0.04428319550226633 0  0.02537691814775486 -0.04308145802224143 0  0.02747544890326525 -0.04177439057082774 0  0.02950680486061762 -0.04036518880071581 0  0.03146601955222702 -0.03885729807306303 0  0.0333483028888813 -0.03725440503392092 0  0.03514905287103634 -0.03556042860075076 0  0.03686386684026893 -0.03377951038104196 0  0.03848855224333972 -0.03191600454649218 0  0.04001913688258468 -0.02997446718747393 0  0.04145187862754592 -0.02795964517384301 0  0.04278327456411439 -0.02587646454930818 0  0.04401006955882308 -0.02373001848772046 0  0.04512926421732501 -0.02152555484076704 0  0.04613812221761816 -0.01926846330749109 0  0.04703417700009521 -0.01696426225698355 0  0.04781523779803072 -0.01461858523653281 0  0.04847939499380377 -0.01223716719812044 0  0.04902502478771547 -0.009825830477058137 0  0.04945079316803235 -0.007390470556905473 0  0.04975565917250727 -0.004937041655616693 0  0.0499388774334346 -0.002471542168039619 0  0.05 -4.403257272689309e-13 0  0.04993887743347755 0.002471542167171875 0  0.04975565917259197 0.004937041654763091 0  0.04945079316815711 0.007390470556070629 0  0.04902502478787914 0.009825830476241509 0  0.04847939499400326 0.01223716719733013 0  0.04781523779826526 0.01461858523576567 0  0.0470341770003617 0.01696426225624468 0  0.04613812221791593 0.01926846330677807 0  0.04512926421764892 0.02152555484008794 0  0.04401006955917259 0.02373001848707224 0  0.04278327456448917 0.02587646454868855 0  0.04145187862794129 0.02795964517325684 0  0.04001913688300011 0.02997446718691929 0  0.03848855224377164 0.03191600454597132 0  0.03686386684071396 0.03377951038055631 0  0.03514905287149344 0.03556042860029895 0  0.03334830288935025 0.03725440503350112 0  0.03146601955270811 0.03885729807267346 0  0.0295068048611069 0.04036518880035816 0  0.02747544890376348 0.04177439057050004 0  0.02537691814825449 0.04308145802194713 0  0.02321634329801946 0.04428319550200175 0  0.02099900674825754 0.04537666487950205 0  0.01873032967100249 0.04635919272825579 0  0.0164158587608822 0.04722837686330929 0  0.01406125267398022 0.04798209221405924 0  0.01167226819298624 0.04861849601983799 0  0.009254746152419701 0.04913603233528602 0  0.006814597158349477 0.04953343583448876 0  -0.187519667561546 -0.2 0  -0.1748316574821168 -0.2 0  -0.1619325192212862 -0.2 0  -0.148818726846035 -0.2 0  -0.1354867192353635 -0.2 0  -0.1219328603917423 -0.2 0  -0.1081534592978099 -0.2 0  -0.09414476589796635 -0.2 0  -0.07990295884356099 -0.2 0  -0.06542416303692469 -0.2 0  -0.05070442887227664 -0.2 0  -0.03573975841838681 -0.2 0  -0.02052606515274366 -0.2 0  -0.005059208927244263 -0.2 0  0.01066502121897589 -0.2 0  0.0266509074223695 -0.2 0  0.04290280916834216 -0.2 0  0.05942514657702952 -0.2 0  0.0762224259839136 -0.2 0  0.09329921648059353 -0.2 0  0.110660175036538 -0.2 0  0.1283100227830172 -0.2 0  0.1462535753141169 -0.2 0  0.1644957199166657 -0.2 0  0.1830414159977267 -0.2 0  0.2018957233573105 -0.2 0  0.2210637763821503 -0.2 0  0.2405507887204602 -0.2 0  0.260362079066015 -0.2 0  0.2805030358280229 -0.2 0  0.3009791451426284 -0.2 0  0.3217959904068706 -0.2 0  0.3429592343744705 -0.2 0  0.3644746437000989 -0.2 0  0.3863480795092348 -0.2 0  0.4085854991020529 -0.2 0  0.4311929577241948 -0.2 0  0.4541766164908302 -0.2 0  0.4775427321916551 -0.2 0  0.5012976684604897 -0.2 0  0.5254479006641548 -0.2 0  0.5749999999999358 -0.2 0  0.5999999999998969 -0.2 0  0.6249999999998155 -0.2 0  0.6499999999998081 -0.2 0  0.6749999999997656 -0.2 0  0.6999999999997664 -0.2 0  0.7249999999997357 -0.2 0  0.7499999999996745 -0.2 0  0.7749999999995796 -0.2 0  0.7999999999995281 -0.2 0  0.8249999999994608 -0.2 0  0.8499999999994138 -0.2 0  0.8749999999993301 -0.2 0  0.8999999999992546 -0.2 0  0.9249999999991836 -0.2 0  0.9499999999990955 -0.2 0  0.9749999999990373 -0.2 0  0.9999999999989423 -0.2 0  1.024999999998847 -0.2 0  1.049999999998752 -0.2 0  1.074999999998672 -0.2 0  1.099999999998649 -0.2 0  1.124999999998554 -0.2 0  1.149999999998545 -0.2 0  1.174999999998451 -0.2 0  1.199999999998416 -0.2 0  1.224999999998348 -0.2 0  1.249999999998288 -0.2 0  1.274999999998288 -0.2 0  1.299999999998246 -0.2 0  1.324999999998369 -0.2 0  1.349999999998394 -0.2 0  1.37499999999845 -0.2 0  1.399999999998551 -0.2 0  1.424999999998531 -0.2 0  1.449999999998684 -0.2 0  1.474999999998642 -0.2 0  1.499999999998804 -0.2 0  1.524999999998773 -0.2 0  1.549999999998885 -0.2 0  1.574999999999013 -0.2 0  1.599999999999079 -0.2 0  1.624999999999119 -0.2 0  1.649999999999211 -0.2 0  1.674999999999224 -0.2 0  1.699999999999321 -0.2 0  1.724999999999342 -0.2 0  1.749999999999427 -0.2 0  1.774999999999474 -0.2 0  1.799999999999533 -0.2 0  1.824999999999605 -0.2 0  1.849999999999639 -0.2 0  1.874999999999735 -0.2 0  1.899999999999745 -0.2 0  1.924999999999841 -0.2 0  1.949999999999869 -0.2 0  1.974999999999947 -0.2 0  2 -0.1758823529412649 0  2 -0.1517647058824698 0  2 -0.12764705882371 0  2 -0.103529411764951 0  2 -0.07941176470620959 0  2 -0.05529411764745706 0  2 -0.03117647058865336 0  2 -0.007058823529918185 0  2 0.01705882352889865 0  2 0.04117647058779714 0  2 0.06529411764668486 0  2 0.08941176470558332 0  2 0.1135294117644398 0  2 0.137647058823337 0  2 0.1617647058822356 0  2 0.185882352941134 0  1.975000000000015 0.21 0  1.950000000000055 0.21 0  1.925000000000061 0.21 0  1.90000000000011 0.21 0  1.875000000000116 0.21 0  1.850000000000166 0.21 0  1.825000000000172 0.21 0  1.800000000000206 0.21 0  1.775000000000227 0.21 0  1.750000000000322 0.21 0  1.725000000000369 0.21 0  1.700000000000375 0.21 0  1.675000000000454 0.21 0  1.650000000000517 0.21 0  1.62500000000057 0.21 0  1.600000000000658 0.21 0  1.575000000000687 0.21 0  1.550000000000789 0.21 0  1.525000000000806 0.21 0  1.500000000000905 0.21 0  1.475000000001007 0.21 0  1.450000000001109 0.21 0  1.42500000000121 0.21 0  1.400000000001312 0.21 0  1.375000000001406 0.21 0  1.350000000001428 0.21 0  1.32500000000153 0.21 0  1.300000000001554 0.21 0  1.275000000001647 0.21 0  1.250000000001522 0.21 0  1.225000000001572 0.21 0  1.200000000001437 0.21 0  1.175000000001446 0.21 0  1.15000000000137 0.21 0  1.125000000001303 0.21 0  1.100000000001302 0.21 0  1.075000000001145 0.21 0  1.050000000001136 0.21 0  1.025000000000966 0.21 0  1.000000000000931 0.21 0  0.9750000000008732 0.21 0  0.9500000000008135 0.21
[...]
<PointData  Scalars="pressure"> 
<DataArray  type="Float64"  Name="pressure"  format="ascii">-7.8603922256202408e-01  -1.1592572899747189e+00  -1.1455809028914703e+00  -7.0773612009706899e-01  -5.8584502930388405e-01  -7.7250614299791875e-01  5.6232885153321766e-01  2.8706722156424941e-01  0.0000000000000000e+00  0.0000000000000000e+00  7.9850872657632452e-02  4.3115290249307936e-01  -9.9458578398161157e-01  -1.2338037387818441e+00  -5.7389356101838607e-01  -6.5776338241377152e-01  -1.1833030951912225e+00  -1.1883444491783952e+00  -1.1781982287239683e+00  -1.1570601991419391e+00  -1.1208290801466616e+00  -1.0678211698277458e+00  -1.0005085501631175e+00  -9.1918342380095197e-01  -8.1960346302101172e-01  -7.0264925513712484e-01  -5.7122368630648412e-01  -4.3110685153848721e-01  -2.7850084527902069e-01  -1.0965009739581524e-01  6.1105401128217419e-02  2.4295138492686444e-01  4.2497090874964322e-01  6.0511870009494850e-01  7.9103927982364353e-01  9.6361245871401480e-01  1.1376743337080359e+00  1.2975519378049789e+00  1.4455781892554485e+00  1.5820658526825497e+00  1.6999679213929666e+00  1.7997989196478592e+00  1.8816127875213093e+00  1.9442174579071649e+00  1.9811558997026149e+00  1.9982888787130322e+00  1.9935285474659579e+00  1.9656836345486601e+00  1.9173796389083138e+00  1.8475285472340759e+00  1.7598731683818587e+00  1.6562640971528577e+00  1.5333243481914387e+00  1.4008087061388712e+00  1.2539661461797753e+00  1.0979878780241275e+00  9.3721097541433285e-01  7.7120663887955698e-01  6.0748401993476908e-01  4.4412674001211766e-01  2.7970616166883266e-01  1.3259590414525360e-01  -1.6993335039639651e-02  -1.4961471135072071e-01  -2.7135746798617993e-01  -3.8126304548407175e-01  -4.7726530644253962e-01  -5.5432468865909201e-01  -6.2151515138211033e-01  -6.6669527312089039e-01  -7.0272331065106930e-01  -7.1934327707776813e-01  -7.2514363647714064e-01  -7.1634044369579042e-01  -6.9980569800175740e-01  -6.7327375481365959e-01  -6.2746347679476366e-01  -5.8749453596288437e-01  -5.5019320666167759e-01  -5.1822092641768347e-01  -4.8957821451928935e-01  -4.6481899615322947e-01  -4.4315522961221421e-01  -4.2458091384303648e-01  -4.0868312565860693e-01  -3.9483737980080075e-01  -3.8331854277244398e-01  -3.7371857128958647e-01  -3.6533955577032323e-01  -3.5848356101432527e-01  -3.5274072489494568e-01  -3.4847700833726680e-01  -3.4498983510979037e-01  -3.4266541565940301e-01  -3.4082523760632399e-01  -3.4047461335071411e-01  -3.4053121004701109e-01  -3.4168224447861190e-01  -3.4367618677202438e-01  -3.4672951663949397e-01  -3.5101515031312358e-01  -3.5646372876020527e-01  -3.6321716834182843e-01  -3.7116057394542729e-01  -3.8022606228644079e-01  -3.9038480230259093e-01  -4.0087863748107583e-01  -4.1202932802896114e-01  -4.2309259468092042e-01  -4.3369000956466908e-01  -4.4358317816752735e-01  -4.5287869508808010e-01  -4.6081102691819326e-01  -4.6797671525566509e-01  -4.7410760098879318e-01  -4.7918889146453564e-01  -4.8413295897645237e-01  -4.8875745814971056e-01  -4.9367025350392701e-01  -4.9950970930026123e-01  -5.0679140955314628e-01  -5.1581381691264228e-01  -5.2725794176491758e-01  -5.4105878806685814e-01  -5.5784497864864258e-01  -5.7729954149855478e-01  -5.9992892049940738e-01  -6.2557870442347485e-01  -6.5425592504557561e-01  -6.8597964366947628e-01  -7.2007438701820636e-01  -7.5576003586057972e-01  -7.9076683088556310e-01  -8.2953055885828386e-01  5.6163402453726641e-01  5.6066520368269335e-01  5.5867940867344001e-01  5.5586919557537895e-01  5.5157205393444575e-01  5.4554165362236640e-01  5.3708036425226602e-01  5.2585342996208628e-01  5.1074679388624555e-01  4.9159276483852615e-01  4.6762602831445371e-01  4.3797373878429208e-01  4.0442100349267907e-01  3.6585540604133576e-01  3.2507598183993242e-01  2.8383255637129290e-01  2.4347246454797125e-01  2.0490660943199937e-01  1.7243609362683454e-01  1.4315540414190261e-01  1.2099776445770850e-01  1.0327423568204876e-01  9.0865699312415019e-02  8.0457203660054141e-02  7.4135054206361253e-02  6.7693547383858077e-02  6.0953215973970049e-02  5.0245473961505444e-02  3.6914708515939573e-02  1.9333878803828957e-02  -2.9417984660551626e-03  -2.0551071033335342e-02  -3.1192407084993743e-02  -2.5996880484081438e-02  -3.5831438412148196e-03  3.5664326444379967e-02  8.5869641161767596e-02  1.3964905538399641e-01  1.9218142470088978e-01  2.3779300538240189e-01  2.6803116001578720e-01  2.9107317512271808e-01  2.8179285777967544e-01  2.6134318472609203e-01  2.4005321961184639e-01  2.1746839717439875e-01  1.9307402453624353e-01  1.6488577395213572e-01  1.3360808386640552e-01  9.9792332799873457e-02  6.9713831950134558e-02  4.8923533308585253e-02  4.6466738392361977e-02  7.3595332121457524e-02  1.1911987530097930e-01  1.7382729125921595e-01  2.2323003682651324e-01  2.5448651627748592e-01  2.6601215594589034e-01  2.5872448073232956e-01  2.3961313927885036e-01  2.1030500121717091e-01  1.7067622078268127e-01  1.2487359660490548e-01  7.1999501792515019e-02  2.5296941831025190e-02  -1.1501313666583140e-02  -2.1853150226344199e-02  -3.2785101425570205e-03  4.1458169852689901e-02  9.2374999019583362e-02  1.3976098763216294e-01  1.7837871738547978e-01  2.0138919009233272e-01  2.0729322540264250e-01  2.0013209542516092e-01  1.7521114614277083e-01  1.3822302964880046e-01  9.8915064283373086e-02  5.4320143240107206e-02  1.4682736416971988e-02  -1.2330528794841238e-02  -2.6212558937151274e-02  -2.3391502598877255e-02  -6.6242066581509371e-03  2.0413232367397751e-02  5.1051934232256471e-02  8.1739599658184781e-02  1.0803311790718295e-01  1.2779866846649032e-01  1.3833665573256818e-01  1.3840761451582115e-01  1.2787761254366631e-01  1.0982854975203081e-01  8.5568742467440978e-02  5.9424773113853892e-02  3.4035553426263090e-02  1.4849371191195795e-02  0.0000000000000000e+00  0.0000000000000000e+00  0.0000000000000000e+00  0.0000000000000000e+00  0.0000000000000000e+00  0.0000000000000000e+00  0.0000000000000000e+00  0.0000000000000000e+00  0.0000000000000000e+00  0.0000000000000000e+00  0.0000000000000000e+00  0.0000000000000000e+00  0.0000000000000000e+00  0.0000000000000000e+00  0.0000000000000000e+00  0.0000000000000000e+00  3.7120873919356898e-03  1.2693811973880917e-03  -8.4901593534519749e-03  -2.1429390259505830e-02  -3.5000903071266951e-02  -4.7137584830572669e-02  -5.3385412951820706e-02  -5.0995125181883524e-02  -3.8638202945138082e-02  -1.4983091192535386e-02  1.7957644772689789e-02  5.2012115969155663e-02  8.7765475883469043e-02  1.1800062769931555e-01  1.3781241455200013e-01  1.4883823706924063e-01  1.4641037394938419e-01  1.3369794883816360e-01  1.0649509598930704e-01  7.4056236336869918e-02  3.7883558260139942e-02  3.9660809149285933e-03  -1.7825341273768537e-02  -2.0920492149360891e-02  -4.2685938113760924e-03  3.7156226044914246e-02  8.7385665071045726e-02  1.4229759432539665e-01  1.8999720659669073e-01  2.2809421514313871e-01  2.4765261222969370e-01  2.4846733858858253e-01  2.2831449794406383e-01  1.8923648535756654e-01  1.3128959565824963e-01  7.6838833376033894e-02  3.1622799146089259e-02  1.1259756666583021e-02  1.9967724255093178e-02  4.5581858154206338e-02  8.0405718353727854e-02  1.1783075355634297e-01  1.5245757629492271e-01  1.8343407883061619e-01  2.1073409399638152e-01  2.3412447196908884e-01  2.5079701368057578e-01  2.5813097171489136e-01  2.5302641835906814e-01  2.3479628227704616e-01  2.0730801566334189e-01  1.7289942255096355e-01  1.4238675676723456e-01  1.2041209965652910e-01  1.0631653471502629e-01  9.5084829170762636e-02  8.4832029224233732e-02  8.3838158827805542e-02  1.0520378468781214e-01  1.4493130417954561e-01  1.9036325507933377e-01  2.3969358062135729e-01  2.7536821777819603e-01  2.9949674763401340e-01  2.9851866630731350e-01  2.8363798236312715e-01  2.5382192332969933e-01  2.1552173763076535e-01  1.7022847076850237e-01  1.2720359561249300e-01  8.5932542075906684e-02  4.8359142178095095e-02  1.9185643221369782e-02  -2.9627463609000742e-03  -1.6893320954666263e-02  -2.2439644540168509e-02  -1.9729183308619651e-02  -1.0208848184278923e-02  7.2230003847837494e-03  3.2025239755953276e-02  6.1759711181965861e-02  9.7433803010399805e-02  1.3641625390708395e-01  1.7672543471293747e-01  2.1717118120217876e-01  2.5590366017358224e-01  2.9170626356131352e-01  3.2267514208993558e-01  3.4989130542934221e-01  3.7173743812049381e-01  3.8889430132595826e-01  4.0261682571894564e-01  4.1231679822565798e-01  4.1964423312824828e-01  4.2443508637910154e-01  4.2761774537858699e-01  4.2948160431513416e-01  4.3049907017994304e-01  4.3098995152410791e-01  4.3199081968236769e-01  4.3571298285557636e-01  4.4339243830481945e-01  4.5596944245243498e-01  4.7435719981325419e-01  4.9870885370536594e-01  5.2898746560485721e-01  5.6468141988219644e-01  6.0498162237954700e-01  6.4780126858351050e-01  6.9159394003037189e-01  7.3347593120394050e-01  7.7054665824724977e-01  8.0106517745645300e-01  8.2327967547229652e-01  8.3290423398014757e-01  8.3269400706143559e-01  8.2180136751671473e-01  8.0160834653800961e-01  7.7545519829456810e-01  7.4403115054676583e-01  7.1134230024075318e-01  6.7867078107317536e-01  6.4879926670827626e-01  6.2257775272007332e-01  6.0117196208103973e-01  5.8481942060901060e-01  5.7338024196420789e-01  5.6665205820579556e-01  5.6304765792899503e-01  5.6222558168466163e-01  2.8999364736387978e-01  2.9943222668829356e-01  3.0529499238689667e-01  2.9910499127969142e-01  2.8346063595050386e-01  2.4784843269665366e-01  1.8990091861802802e-01  1.3097851887467812e-01  9.0268068366505805e-02  6.7397659231567916e-02  6.1524801028908185e-02  5.5225450607373987e-02  5.0173929056357570e-02  5.2876959597792018e-02  6.3329656177386409e-02  7.5013985135756828e-02  3.8184588321363552e-02  -9.2985323691959741e-03  -4.3717925870806435e-04  1.7862658609547690e-02  -1.2047479054097051e-02  3.3326315460176642e-02  5.0042028670671208e-02  -1.0410119073394485e-01  1.6139166442148867e-01  -1.8830393695556069e-01  -4.7806700924921272e-02  2.7320223910432631e-03  1.9322449751766516e-01  -4.9114055292991989e-02  -3.8333564103853177e-02  2.1504124572426214e-01  1.1709124072762939e-01  -1.3396588135498616e-01  2.3849251367790028e-01  -1.1075704247129481e-01  2.0147340811972816e-01  8.3715531188928827e-02  -1.2365617729681351e-02  1.6791951599836002e-01  1.5634014879439259e-01  2.8154952871343708e-01  1.0920345201897536e-01  -7.0244742703467755e-02  -4.2965003992619800e-02  4.7232635876014789e-03  9.7845432350982364e-02  1.2386561641812770e-01  1.3117144466145594e-01  1.3887212538014504e-01  1.7476489541115564e-01  -6.6830945686375855e-03  3.3123103440293338e-03  6.3583846165079965e-03  9.7110654231830906e-03  1.1707871578896609e-02  -8.7941951826184611e-02  4.6363741230532912e-02  -8.8129401384038873e-03  -6.5454651015255133e-02  -3.7626081895562345e-02  -6.4901002639977862e-02  -1.0135444120847227e-01  7.9160816703547979e-02  2.8530160814741495e-01  -2.7703723822663307e-03  8.3332700294233619e-02  5.7009264985391855e-02  4.1643980016492943e-02  2.3273577267077389e-01  2.9009367892240689e-01  2.6608365599488093e-01  9.4253472783989919e-02  7.7880135147111465e-02  2.6357184183833993e-01  -4.3238191190788582e-02  -3.8585854047409079e-02  3.2868447224726760e-02  1.3628145452855803e-01  1.4906188102398540e-01  1.7334485373635564e-01  -9.6566095686405090e-02  -9.4928635894919438e-03  6.3143050644921664e-02  1.7343779864924785e-01  -1.0900199882351355e-01  3.3131170808414663e-02  3.5907852434040577e-03  2.0918727657984032e-01  1.9865085291503690e-02  -8.0516459238888477e-02  2.2499773555915747e-01  -1.9130794674983612e-01  5.5525628730732052e-02  1.1210229235449419e-01  2.0819451451033233e-01  2.2010123879941867e-01  2.5586144516819872e-03  1.1335314347379823e-01  1.9947546012722922e-01  3.3834220317469396e-02  -5.1356371109709129e-02  1.7437374068778136e-01  -6.3640075038499978e-03  1.4916262057148177e-01  4.9089187525447039e-02  -1.5118223501223429e-03  -2.4904092318075960e-01  1.7094829374892515e-01  9.9091935198921274e-02  -2.2646837572990988e-02  -8.1655861435095921e-03  2.0730211221276865e-01  1.4131011162890356e-01  -8.5703714594806118e-03  -5.2551431279277645e-02  7.5183972398802285e-02  -4.0597601706606833e-02  7.1307958720083900e-02  -7.3800186821773528e-02  1.7949120605913912e-02  1.2836283016474914e-01  1.5440986434728984e-01  -4.5634680835987124e-02  -5.4161732158485625e-02  3.0437817529781301e-02  6.6310901954519497e-02  4.3355747063773729e-02  6.3853089903162354e-03  1.5020559048390467e-01  1.3159994439823211e-01  2.6892697549384126e-01  -3.4876134166075073e-02  -3.1195003389255165e-02  3.7350403017800550e-02  -2.7708500778066313e-02  9.6758937535839418e-02  3.2357021073847678e-02  1.0319585874425531e-01  1.1535485383253904e-01  6.5568036640607525e-03  2.1409771276667253e-01  1.4765620238428942e-01  -9.7087027317844063e-02  1.9084376682640414e-01  1.4584671022241893e-01  1.0749021259429528e-01  -3.8655287503979053e-03  2.8263081748891434e-02  1.4179055636203702e-01  -3.2520667896046719e-02  -1.5782763970203609e-01  -7.9319209523401907e-02  -1.3768538901534522e-01  2.7215263204441692e-01  1.1119147312787202e-02  6.8554688585533360e-02  3.0243398408563316e-01  1.2614796394693954e-02  2.6368516540475095e-01  -1.6596650418969114e-02  1.5769791085052454e-01  1.6199857265317821e-01  1.4104884369758533e-01  9.0423681901113870e-02  2.6510927556562419e-01  -1.4908119252282870e-01  6.9485720209023563e-02  5.5468485847548828e-02  -1.8911861537864708e-01  1.9543526609907498e-02  1.3423644028937982e-02  8.3683228355475495e-02  1.3916116036704704e-01  1.0250790130981283e-01  3.2928606917667524e-02  5.2968534185997874e-02  -9.5647888961023136e-02  1.3952063499167411e-01  3.8271257815281172e-03  -5.0696527027190248e-02  1.7202868964064361e-01  3.2457719552265864e-03  2.2849774349450675e-03  2.4174292205966064e-01  2.1343157522252323e-01  7.8115612693427441e-02  -1.1746152700461038e-01  2.0384712785612638e-01  -6.2846591805678573e-02  1.4388188312793515e-01  2.8190204990334061e-02  1.0405097865734929e-01  6.6134404946746758e-02  -4.9694732406894634e-03  3.6845731493497645e-02  8.5389073580803998e-02  1.0097082004273825e-01  1.8270102138375557e-01  7.9669455950095350e-02  -8.7270348379411791e-02  2.9586437513497343e-01  5.2010080983328046e-03  8.4432181798762940e-02  2.1627971271540328e-02  -3.3644321435051444e-02  -8.0282631339187019e-02  -2.4243338204739940e-02  -2.1458016915210012e-02  1.0428306223148924e-01  9.8324866658777793e-02  1.5885916538476585e-01  5.3737360021442485e-02  6.6495949992981902e-03  -1.3275015543817958e-01  -2.7571768035447648e-02  2.2670030119542459e-01  1.4884432626510780e-01  -4.6774186144410250e-03  -5.3357817592404828e-02  -3.8837607607268898e-02  -1.1790610792549738e-01  -1.1359594651361059e-01  -1.3070389598065951e-01  5.2572420557900964e-04  1.7476057079297225e-01  6.2014064664619652e-02  1.1281050174194196e-01  1.6114989510104114e-01  4.2313069549743454e-02  1.4432831323405482e-01  2.6797103200721067e-01  7.1677384949571044e-02  -1.3912303897949209e-02  2.6619316731280897e-02  -1.4510870503651671e-01  1.3582893848085827e-03  1.2743263463581064e-02  1.1349470304716895e-01  2.0868903044257117e-01  2.2872165239680906e-01  -5.1041826109020652e-02  -4.8938598925780515e-02  2.0697613898492462e-01  1.0439863773128719e-01  2.3778026168949437e-01  6.4207005755243060e-02  1.3965298887426086e-01  3.9466273842236693e-02  5.3980189676622228e-02  3.0827879156405953e-02  2.3870152925347446e-01  1.6955586252015539e-02  2.1224122651318980e-01  2.4349612409349075e-02  2.4667816047691069e-01  8.8693918477536743e-02  1.2277979106242536e-01  1.0446766063273417e-01  1.0302058007693143e-01  2.8541291200438035e-01  -5.8762521344694528e-02  -4.3852280390060804e-02  2.5986608579857507e-02  7.6128553695893650e-02  2.6065276961526895e-01  -3.5332598784706772e-02  -7.2848493371170234e-02  4.1869928372534920e-02  -2.9042592682278223e-02  -8.7162666793488858e-02  -2.6410367525523917e-02  -1.3744573095996280e-02  9.5487324971626000e-02  2.6937780761225844e-01  5.6011955591216384e-02  8.5393788532597562e-02  -1.8484482274198622e-02  -3.1193091355596236e-02  2.6113299957336106e-01  -7.5474997621904405e-02  1.2278968112957786e-01  2.6345975849263331e-01  6.5785391568136523e-02  1.0326891582560166e-01  -9.4658881773628106e-02  -8.4950197024403179e-02  2.1423429623222637e-01  1.8213045517366008e-01  -1.4745627726630323e-02  5.2046975840797656e-02  4.6725350417222151e-02  1.1297897751077761e-01  2.8451200483292961e-02  -2.0370881136269718e-02  -7.5131301721830759e-02  -1.6408160081145018e-01  2.7211660396417664e-01  1.1452569565853028e-01  6.7241243981686474e-02  1.1167419919689382e-02  7.0936904309815377e-02  3.1498974237701272e-01  1.4057794127302401e-02  2.5133551776117052e-01  1.1372766255216325e-01  -1.8441888439957074e-01  1.2366922430629047e-02  1.0502730121101322e-01  2.4603051097007209e-02  2.5106123974516462e-02  5.5458098155115307e-02  -8.6186839162256862e-02  1.7780990340895395e-02  2.1962209803563637e-01  -1.1215528354565050e-02  -1.8362170423761599e-02  1.1554133778661001e-01  2.2920551504717529e-01  1.3520677734983466e-01  1.6393315786447829e-01  -3.7155334695188709e-03  -4.0068202937530675e-02  1.0200891154162572e-01  1.9262591745502225e-01  1.6072215155059166e-01  2.4920374241605359e-01  -6.9289398407446398e-02  -1.0855718574420369e-01  1.1521218584629414e-01  6.9154748624742930e-03  4.7398786168115666e-02  1.3115790175070691e-02  5.9773408246170806e-02  1.2376886273669575e-01  2.8724047930757263e-01  2.3081428830606870e-01  1.6528766002819950e-01  2.1099574742735022e-01  1.8516475685257835e-01  2.6696152296287812e-01  -9.4627924439567454e-02  1.7558799774030753e-01  1.9237766637429154e-01  1.6352359311038150e-01  7.3530181813804187e-03  1.6042296682048332e-03  -1.1241917750751712e-01  2.0459108252291203e-01  8.1281103058397322e-02  -1.1033591540085295e-02  8.8384406282418199e-02  3.7460327558768242e-02  -6.9348882291276448e-02  1.3099033987808828e-01  -1.4398846515714743e-02  7.0302272486902448e-02  1.8033241970540397e-02  -8.0030294521157438e-02  -6.9263424057286180e-02  1.9913397507571773e-01  1.1005564855094913e-01  5.5054451992897248e-02  1.1304552320909886e-01  -4.4790135796339142e-02  -7.3499932123102275e-03  6.1909493377210800e-02  -7.8951095553064829e-02  1.6905750575215622e-01  3.7424871505360120e-02  1.2339760972630355e-01  -6.0439233498390893e-02  3.6621434327171444e-02  4.4278905910601359e-02  -1.4692750719733777e-03  -3.2330235758140057e-02  1.4524232535454140e-01  -2.1384967754518720e-02  -1.3653628592190245e-01  1.2231084837384693e-02  1.7049854703706430e-01  2.1290885228865591e-01  -1.9466118601245121e-02  7.2812202731605311e-02  1.6026117515393015e-01  1.8125081219179293e-01  -5.2982105612968816e-02  3.6783755286983369e-02  -1.1934391140480529e-02  9.2732296401289563e-02  -2.4381358442450529e-01  -5.9153042842682586e-02  6.2251102891630071e-02  1.7141239527559937e-01  1.0688904741864209e-01  6.4188896946080709e-02  -5.1339208051105242e-02  -3.4591924891548650e-02  -1.6617638066868296e-02  1.8441242100029325e-02  -2.3897693041228643e-02  5.5481162066095012e-02  -2.3583030216814273e-02  -1.2189982569369025e-01  1.6410951628885953e-01  2.1744192977899099e-01  -1.4829999637931638e-02  -7.4921178253936419e-02  9.5042443020443540e-02  6.2996448682639764e-03  1.6411442355424061e-01  -3.3006055686524371e-02  1.5164068917659229e-01  5.9942602901632176e-02  1.3631046185354986e-01  5.3831836428544465e-02  -6.5988398165425149e-02  3.8853126574405338e-02  8.0790138405741244e-02  -1.2991226752884760e-01  -9.4663441553414496e-02  -4.2613173379701498e-03  3.7419132425208147e-02  -1.5485009924469903e-02  1.6990519102292240e-01  2.8150550984824541e-01  -5.6360253907988961e-03  1.2515103129249955e-01  3.9405241762322810e-02  2.2412073406794300e-01  1.4154952782622396e-02  -2.1102105840064271e-02  2.0361720155899871e-01  1.2995813913546534e-02  -2.4746401469636897e-02  2.1077880246312494e-01  2.3957258983244065e-01  -2.0720194340479201e-02  1.6775277485605092e-01  -4.8784166118252224e-03  -6.7698481903