<?xml version="1.0"?>
<VTKFile type="UnstructuredGrid"  version="0.1"  >
<UnstructuredGrid>
<Piece  NumberOfPoints="4826" NumberOfCells="9274">
<Points>
<DataArray  type="Float64"  NumberOfComponents="3"  format="ascii">0.004357787137616029 0.04980973490456689 0  2.448294430073374e-13 0.05 0  -0.004357787137128233 0.04980973490460956 0  -0.004357787137605706 -0.04980973490456778 0  -2.344882876518267e-13 -0.05 0  0.004357787137138513 -0.04980973490460866 0  -0.2 -0.2 0  0.55 -0.2 0  2 -0.2 0  2 0.21 0  0.55 0.21 0  -0.2 0.21 0  0.002180969368511386 0.0499524110790822 0  -0.002180969368010819 0.04995241107910407 0  -0.002180969368502513 -0.04995241107908259 0  0.002180969368021486 -0.0499524110791036 0  -0.006814597157868607 0.04953343583455493 0  -0.009254746151924908 0.04913603233537922 0  -0.01167226819248128 0.04861849601995923 0  -0.01406125267347753 0.04798209221420657 0  -0.01641585876037609 0.04722837686348521 0  -0.01873032967049142 0.04635919272846228 0  -0.02099900674774951 0.04537666487973717 0  -0.0232163432975249 0.04428319550226104 0  -0.0253769181477669 0.04308145802223435 0  -0.02747544890327456 0.04177439057082161 0  -0.02950680486062692 0.04036518880070902 0  -0.03146601955223609 0.03885729807305569 0  -0.0333483028888871 0.03725440503391573 0  -0.03514905287103829 0.03556042860074884 0  -0.03686386684027007 0.03377951038104073 0  -0.0384885522433417 0.0319160045464898 0  -0.04001913688258778 0.02997446718746979 0  -0.04145187862754741 0.0279596451738408 0  -0.04278327456411638 0.0258764645493049 0  -0.04401006955882648 0.02373001848771415 0  -0.04512926421732728 0.02152555484076227 0  -0.04613812221762188 0.01926846330748221 0  -0.04703417700009761 0.01696426225697686 0  -0.04781523779803292 0.0146185852365256 0  -0.04847939499380464 0.01223716719811699 0  -0.04902502478771633 0.009825830477053876 0  -0.04945079316803359 0.007390470556897103 0  -0.04975565917250895 0.004937041655599784 0  -0.04993887743343513 0.002471542168028815 0  -0.05000000000000002 4.319617580295088e-13 0  -0.04993887743347691 -0.002471542167184487 0  -0.04975565917259078 -0.004937041654775128 0  -0.0494507931681559 -0.007390470556078771 0  -0.04902502478787634 -0.00982583047625548 0  -0.048479394994003 -0.01223716719733118 0  -0.04781523779827011 -0.01461858523574979 0  -0.04703417700037211 -0.01696426225621582 0  -0.04613812221792003 -0.01926846330676828 0  -0.04512926421765873 -0.0215255548400674 0  -0.0440100695591652 -0.02373001848708596 0  -0.04278327456447995 -0.0258764645487038 0  -0.04145187862791943 -0.02795964517328926 0  -0.04001913688296869 -0.02997446718696123 0  -0.03848855224374843 -0.03191600454599933 0  -0.03686386684070041 -0.03377951038057109 0  -0.03514905287149575 -0.03556042860029668 0  -0.03334830288936536 -0.03725440503348761 0  -0.03146601955271191 -0.03885729807267038 0  -0.02950680486109357 -0.0403651888003679 0  -0.02747544890375341 -0.04177439057050667 0  -0.02537691814821718 -0.0430814580219691 0  -0.02321634329799415 -0.04428319550201502 0  -0.02099900674823039 -0.04537666487951462 0  -0.01873032967097447 -0.04635919272826711 0  -0.0164158587608675 -0.0472283768633144 0  -0.01406125267397827 -0.04798209221405982 0  -0.01167226819300015 -0.04861849601983465 0  -0.00925474615244812 -0.04913603233528067 0  -0.006814597158347743 -0.04953343583448901 0  0.006814597157865879 -0.04953343583455529 0  0.009254746151927097 -0.0491360323353788 0  0.01167226819248615 -0.04861849601995805 0  0.01406125267347329 -0.04798209221420779 0  0.01641585876037412 -0.04722837686348589 0  0.01873032967049753 -0.04635919272845981 0  0.02099900674775168 -0.04537666487973616 0  0.02321634329751479 -0.04428319550226633 0  0.02537691814775486 -0.04308145802224143 0  0.02747544890326525 -0.04177439057082774 0  0.02950680486061762 -0.04036518880071581 0  0.03146601955222702 -0.03885729807306303 0  0.0333483028888813 -0.03725440503392092 0  0.03514905287103634 -0.03556042860075076 0  0.03686386684026893 -0.03377951038104196 0  0.03848855224333972 -0.03191600454649218 0  0.04001913688258468 -0.02997446718747393 0  0.04145187862754592 -0.02795964517384301 0  0.04278327456411439 -0.02587646454930818 0  0.04401006955882308 -0.02373001848772046 0  0.04512926421732501 -0.02152555484076704 0  0.04613812221761816 -0.01926846330749109 0  0.04703417700009521 -0.01696426225698355 0  0.04781523779803072 -0.01461858523653281 0  0.04847939499380377 -0.01223716719812044 0  0.04902502478771547 -0.009825830477058137 0  0.04945079316803235 -0.007390470556905473 0  0.04975565917250727 -0.004937041655616693 0  0.0499388774334346 -0.002471542168039619 0  0.05 -4.403257272689309e-13 0  0.04993887743347755 0.002471542167171875 0  0.04975565917259197 0.004937041654763091 0  0.04945079316815711 0.007390470556070629 0  0.04902502478787914 0.009825830476241509 0  0.04847939499400326 0.01223716719733013 0  0.04781523779826526 0.01461858523576567 0  0.0470341770003617 0.01696426225624468 0  0.04613812221791593 0.01926846330677807 0  0.04512926421764892 0.02152555484008794 0  0.04401006955917259 0.02373001848707224 0  0.04278327456448917 0.02587646454868855 0  0.04145187862794129 0.02795964517325684 0  0.04001913688300011 0.02997446718691929 0  0.03848855224377164 0.03191600454597132 0  0.03686386684071396 0.03377951038055631 0  0.03514905287149344 0.03556042860029895 0  0.03334830288935025 0.03725440503350112 0  0.03146601955270811 0.03885729807267346 0  0.0295068048611069 0.04036518880035816 0  0.02747544890376348 0.04177439057050004 0  0.02537691814825449 0.04308145802194713 0  0.02321634329801946 0.04428319550200175 0  0.02099900674825754 0.04537666487950205 0  0.01873032967100249 0.04635919272825579 0  0.0164158587608822 0.04722837686330929 0  0.01406125267398022 0.04798209221405924 0  0.01167226819298624 0.04861849601983799 0  0.009254746152419701 0.04913603233528602 0  0.006814597158349477 0.04953343583448876 0  -0.187519667561546 -0.2 0  -0.1748316574821168 -0.2 0  -0.1619325192212862 -0.2 0  -0.148818726846035 -0.2 0  -0.1354867192353635 -0.2 0  -0.1219328603917423 -0.2 0  -0.1081534592978099 -0.2 0  -0.09414476589796635 -0.2 0  -0.07990295884356099 -0.2 0  -0.06542416303692469 -0.2 0  -0.05070442887227664 -0.2 0  -0.03573975841838681 -0.2 0  -0.02052606515274366 -0.2 0  -0.005059208927244263 -0.2 0  0.01066502121897589 -0.2 0  0.0266509074223695 -0.2 0  0.04290280916834216 -0.2 0  0.05942514657702952 -0.2 0  0.0762224259839136 -0.2 0  0.09329921648059353 -0.2 0  0.110660175036538 -0.2 0  0.1283100227830172 -0.2 0  0.1462535753141169 -0.2 0  0.1644957199166657 -0.2 0  0.1830414159977267 -0.2 0  0.2018957233573105 -0.2 0  0.2210637763821503 -0.2 0  0.2405507887204602 -0.2 0  0.260362079066015 -0.2 0  0.2805030358280229 -0.2 0  0.3009791451426284 -0.2 0  0.3217959904068706 -0.2 0  0.3429592343744705 -0.2 0  0.3644746437000989 -0.2 0  0.3863480795092348 -0.2 0  0.4085854991020529 -0.2 0  0.4311929577241948 -0.2 0  0.4541766164908302 -0.2 0  0.4775427321916551 -0.2 0  0.5012976684604897 -0.2 0  0.5254479006641548 -0.2 0  0.5749999999999358 -0.2 0  0.5999999999998969 -0.2 0  0.6249999999998155 -0.2 0  0.6499999999998081 -0.2 0  0.6749999999997656 -0.2 0  0.6999999999997664 -0.2 0  0.7249999999997357 -0.2 0  0.7499999999996745 -0.2 0  0.7749999999995796 -0.2 0  0.7999999999995281 -0.2 0  0.8249999999994608 -0.2 0  0.8499999999994138 -0.2 0  0.8749999999993301 -0.2 0  0.8999999999992546 -0.2 0  0.9249999999991836 -0.2 0  0.9499999999990955 -0.2 0  0.9749999999990373 -0.2 0  0.9999999999989423 -0.2 0  1.024999999998847 -0.2 0  1.049999999998752 -0.2 0  1.074999999998672 -0.2 0  1.099999999998649 -0.2 0  1.124999999998554 -0.2 0  1.149999999998545 -0.2 0  1.174999999998451 -0.2 0  1.199999999998416 -0.2 0  1.224999999998348 -0.2 0  1.249999999998288 -0.2 0  1.274999999998288 -0.2 0  1.299999999998246 -0.2 0  1.324999999998369 -0.2 0  1.349999999998394 -0.2 0  1.37499999999845 -0.2 0  1.399999999998551 -0.2 0  1.424999999998531 -0.2 0  1.449999999998684 -0.2 0  1.474999999998642 -0.2 0  1.499999999998804 -0.2 0  1.524999999998773 -0.2 0  1.549999999998885 -0.2 0  1.574999999999013 -0.2 0  1.599999999999079 -0.2 0  1.624999999999119 -0.2 0  1.649999999999211 -0.2 0  1.674999999999224 -0.2 0  1.699999999999321 -0.2 0  1.724999999999342 -0.2 0  1.749999999999427 -0.2 0  1.774999999999474 -0.2 0  1.799999999999533 -0.2 0  1.824999999999605 -0.2 0  1.849999999999639 -0.2 0  1.874999999999735 -0.2 0  1.899999999999745 -0.2 0  1.924999999999841 -0.2 0  1.949999999999869 -0.2 0  1.974999999999947 -0.2 0  2 -0.1758823529412649 0  2 -0.1517647058824698 0  2 -0.12764705882371 0  2 -0.103529411764951 0  2 -0.07941176470620959 0  2 -0.05529411764745706 0  2 -0.03117647058865336 0  2 -0.007058823529918185 0  2 0.01705882352889865 0  2 0.04117647058779714 0  2 0.06529411764668486 0  2 0.08941176470558332 0  2 0.1135294117644398 0  2 0.137647058823337 0  2 0.1617647058822356 0  2 0.185882352941134 0  1.975000000000015 0.21 0  1.950000000000055 0.21 0  1.925000000000061 0.21 0  1.90000000000011 0.21 0  1.875000000000116 0.21 0  1.850000000000166 0.21 0  1.825000000000172 0.21 0  1.800000000000206 0.21 0  1.775000000000227 0.21 0  1.750000000000322 0.21 0  1.725000000000369 0.21 0  1.700000000000375 0.21 0  1.675000000000454 0.21 0  1.650000000000517 0.21 0  1.62500000000057 0.21 0  1.600000000000658 0.21 0  1.575000000000687 0.21 0  1.550000000000789 0.21 0  1.525000000000806 0.21 0  1.500000000000905 0.21 0  1.475000000001007 0.21 0  1.450000000001109 0.21 0  1.42500000000121 0.21 0  1.400000000001312 0.21 0  1.375000000001406 0.21 0  1.350000000001428 0.21 0  1.32500000000153 0.21 0  1.300000000001554 0.21 0  1.275000000001647 0.21 0  1.250000000001522 0.21 0  1.225000000001572 0.21 0  1.200000000001437 0.21 0  1.175000000001446 0.21 0  1.15000000000137 0.21 0  1.125000000001303 0.21 0  1.100000000001302 0.21 0  1.075000000001145 0.21 0  1.050000000001136 0.21 0  1.025000000000966 0.21 0  1.000000000000931 0.21 0  0.9750000000008732 0.21 0  0.9500000000008135 0.21
[...]
<PointData  Scalars="pressure"> 
<DataArray  type="Float64"  Name="pressure"  format="ascii">-8.0130690374904456e-01  -8.7236656646830590e-01  -9.0835501276257968e-01  -9.6620285716076237e-01  -8.9754133071938202e-01  -8.3668351871549496e-01  4.7509586413069510e-01  1.8302106400533594e-01  0.0000000000000000e+00  0.0000000000000000e+00  1.4122325352683110e-01  4.7134764526049217e-01  -8.3608371629765432e-01  -8.9426612507677949e-01  -9.3264138209519332e-01  -8.6585874415222053e-01  -9.2313476221993618e-01  -9.3148697621769172e-01  -9.2629030385154243e-01  -9.0959460860224683e-01  -8.7901968614085146e-01  -8.3186384051088980e-01  -7.7066105455970124e-01  -6.9571551498509998e-01  -6.0297213948327433e-01  -4.9328176079018332e-01  -3.6969614185589394e-01  -2.3700051832404367e-01  -9.2432095024386540e-02  6.7344723862815634e-02  2.2935221007212242e-01  4.0132663892891879e-01  5.7342296624514921e-01  7.4324530455669136e-01  9.1772680077042124e-01  1.0791321082296104e+00  1.2407179000731399e+00  1.3879579853744177e+00  1.5229207299015552e+00  1.6456574400408677e+00  1.7495081450030425e+00  1.8351398661890606e+00  1.9021019159940178e+00  1.9496989821967567e+00  1.9716212062720160e+00  1.9736160241796308e+00  1.9537034166599054e+00  1.9107454606590986e+00  1.8476613225549574e+00  1.7630401118575523e+00  1.6611480135664056e+00  1.5438351882552019e+00  1.4073016113856756e+00  1.2620337718982835e+00  1.1026096485016601e+00  9.3457527875453450e-01  7.6245253970922611e-01  5.8554620937118507e-01  4.1169458539635068e-01  2.3869085500347859e-01  6.4612000365074307e-02  -9.0420234287806905e-02  -2.4902328743159691e-01  -3.8904879162994177e-01  -5.1826080012293718e-01  -6.3521772618928063e-01  -7.3806385290746157e-01  -8.2128075558449798e-01  -8.9465117494745450e-01  -9.4503306055973346e-01  -9.8610933487583041e-01  -1.0070960013552217e+00  -1.0161596834068143e+00  -1.0104175272213569e+00  -9.9479601463381140e-01  -7.9401351002246545e-01  -7.5211662811955815e-01  -7.1085005292454562e-01  -6.7078918503995166e-01  -6.3440547558108606e-01  -6.0103145954223913e-01  -5.7119705352655892e-01  -5.4452357393036999e-01  -5.2101178067065779e-01  -5.0052368477856879e-01  -4.8247898428012903e-01  -4.6747068416204651e-01  -4.5523090359553181e-01  -4.4502116723824592e-01  -4.3721204074333769e-01  -4.3118217721578600e-01  -4.2717489229977190e-01  -4.2404732628305325e-01  -4.2198842218114496e-01  -4.2018036820877247e-01  -4.1854120898172542e-01  -4.1689074435687851e-01  -4.1484898450777052e-01  -4.1241014784846791e-01  -4.0995396637036191e-01  -4.0688621903994210e-01  -4.0411083841474515e-01  -4.0129285484578581e-01  -3.9896065524391722e-01  -3.9734352392947647e-01  -3.9657520124663437e-01  -3.9682343270008325e-01  -3.9853908807304833e-01  -4.0110630826542781e-01  -4.0500662018319761e-01  -4.0982463186555779e-01  -4.1548198227571637e-01  -4.2160502482749618e-01  -4.2829731084102185e-01  -4.3506632333936002e-01  -4.4181302610054235e-01  -4.4864175357961422e-01  -4.5539531070943207e-01  -4.6212976068123185e-01  -4.6906986321836830e-01  -4.7649783279324776e-01  -4.8460268176162957e-01  -4.9401826332969273e-01  -5.0478777913881989e-01  -5.1780613408692000e-01  -5.3292235298702861e-01  -5.5096155402282621e-01  -5.7183074829245029e-01  -5.9589139820478665e-01  -6.2316397851636651e-01  -6.5357366179730736e-01  -6.8667517315345994e-01  -7.2256133842550685e-01  -7.5960147231217323e-01  4.7444954159470060e-01  4.7363349910219071e-01  4.7190865961345274e-01  4.6939413345291670e-01  4.6533616227433849e-01  4.5934452432796113e-01  4.5057567928450970e-01  4.3857837557345886e-01  4.2201806790376628e-01  4.0072143162599633e-01  3.7388858389028495e-01  3.4060581355793640e-01  3.0301793510711406e-01  2.5983435726396925e-01  2.1436077283107594e-01  1.6855953644325922e-01  1.2347157280447255e-01  7.9987793584468558e-02  4.3202961648154875e-02  9.2583486207602050e-03  -1.6713484192054037e-02  -3.8007126435941105e-02  -5.2376304414556984e-02  -6.3848366872899243e-02  -6.8479300645303290e-02  -7.0200316794489917e-02  -6.7005606330295522e-02  -5.8992791294968219e-02  -4.4211489300606123e-02  -1.9166789477222956e-02  1.7612085703803900e-02  6.6043084827927104e-02  1.2130508079652273e-01  1.8059912300526806e-01  2.3534286653338307e-01  2.8284546076749939e-01  3.1151856747653767e-01  3.2328218846949042e-01  3.0632113886892010e-01  2.7626162663083526e-01  2.2969260972432440e-01  1.4443550879379521e-01  1.2046144221713666e-01  1.0311312412317308e-01  8.6067530973430742e-02  6.9100971031232764e-02  5.6999387817839128e-02  5.5206659672175404e-02  7.3683849689123435e-02  1.0834190300125665e-01  1.5483837637529071e-01  1.9867559027116533e-01  2.2883562578188568e-01  2.4122287086953859e-01  2.4019998325900657e-01  2.2456446543311506e-01  2.0122938871059601e-01  1.7098691159283708e-01  1.3641205106594323e-01  9.4598842016651294e-02  5.0177882405359392e-02  9.3822919720274300e-03  -2.2501815164866146e-02  -2.6209678875365922e-02  -3.3774793282213716e-03  4.3570359449821232e-02  1.0307320768185510e-01  1.5465697878720272e-01  1.9280082632734444e-01  2.1008086575921650e-01  2.1152692764401879e-01  1.9370044395707445e-01  1.5984232658486880e-01  1.1512561551984324e-01  6.3454124005358201e-02  1.3449007983267234e-02  -2.2631952097134637e-02  -4.7244064084462335e-02  -5.3064101375152981e-02  -3.8024670045448884e-02  -1.2734780080866568e-02  2.0366382418662270e-02  5.4589975121128523e-02  8.3388566642937034e-02  1.0513421688456118e-01  1.1476847175377108e-01  1.1416211267008149e-01  1.0076257235367357e-01  7.8566319595788150e-02  4.7975917549439556e-02  1.4435231282531245e-02  -1.6290542069064485e-02  -4.2975558480210500e-02  -5.9269134439878184e-02  -6.3728727144058736e-02  -5.6395934151749434e-02  -3.9785214660826129e-02  -2.0076067852290450e-02  0.0000000000000000e+00  0.0000000000000000e+00  0.0000000000000000e+00  0.0000000000000000e+00  0.0000000000000000e+00  0.0000000000000000e+00  0.0000000000000000e+00  0.0000000000000000e+00  0.0000000000000000e+00  0.0000000000000000e+00  0.0000000000000000e+00  0.0000000000000000e+00  0.0000000000000000e+00  0.0000000000000000e+00  0.0000000000000000e+00  0.0000000000000000e+00  2.3840987416906330e-02  4.5703073931060004e-02  6.2580372199002032e-02  7.2969794514223585e-02  7.2519715706165708e-02  6.3319385044853488e-02  4.7571022804278877e-02  2.5723787027567349e-02  2.5260984511730473e-03  -1.7556037041677779e-02  -3.6121930277063438e-02  -4.5505799323356140e-02  -4.3418952411163329e-02  -2.8937398790836847e-02  -1.7801078136526545e-03  3.4113173124659335e-02  7.3522573170335712e-02  1.0977542945027415e-01  1.3772443614337684e-01  1.5616244608368274e-01  1.6036448893258740e-01  1.5046607617477062e-01  1.2729454793402895e-01  8.9651797251544693e-02  4.6272764707891330e-02  3.3489807285117163e-03  -3.3351147107785077e-02  -4.2532021538837110e-02  -2.8718895905825284e-02  1.1518109083165555e-02  6.0318995974722379e-02  1.1306941437154727e-01  1.6210626978964038e-01  2.0018434938751378e-01  2.2904818430989149e-01  2.4175217339557933e-01  2.3568260928063120e-01  2.0945209430240788e-01  1.5998464593589645e-01  1.0236947819113341e-01  5.2936963901263061e-02  2.1074796965982454e-02  1.4865509917001765e-02  2.9557539967505122e-02  5.8519665199409092e-02  9.0595536433912355e-02  1.2335524257851735e-01  1.5165989975085609e-01  1.7586709739918396e-01  1.9838214907900306e-01  2.1664029200266746e-01  2.3160673620274649e-01  2.4067082432526343e-01  2.4028296564201418e-01  2.2902946985821049e-01  2.0605875100441604e-01  1.7746758565041090e-01  1.0105653454471027e-01  6.3707695684053572e-02  2.7311681855954735e-02  2.1396755748730495e-03  -1.0202819451277351e-02  -2.9516961554881442e-03  1.4795033024125284e-02  4.5708925622676325e-02  7.8438152677263853e-02  1.0499170217028282e-01  1.2177182857366313e-01  1.3086933991197638e-01  1.3114698918773954e-01  1.2521205025251342e-01  1.1515261193815354e-01  1.0291307792089364e-01  9.0940146085691384e-02  8.0700054721427009e-02  7.5151566856333465e-02  7.5476766417802724e-02  8.0630947115666624e-02  9.3577239716283747e-02  1.1313545101724762e-01  1.3788663370602736e-01  1.6850160635515105e-01  2.0241180581323454e-01  2.3802373887537609e-01  2.7408477990725455e-01  3.0861544728639423e-01  3.4062012036107087e-01  3.6850958734093131e-01  3.9311087668969624e-01  4.1309725617045845e-01  4.2906660533713653e-01  4.4206806566891632e-01  4.5155314065741975e-01  4.5891526012333089e-01  4.6393550541465545e-01  4.6737888052088988e-01  4.6948574224474154e-01  4.7065889515475984e-01  4.7121722080944778e-01  4.7226230827754440e-01  4.7588397090353413e-01  4.8319026560076128e-01  4.9501303209079811e-01  5.1212754695274143e-01  5.3462161172341982e-01  5.6233234195091464e-01  5.9468655123594716e-01  6.3077234602406962e-01  6.6846868430036721e-01  7.0624378680523647e-01  7.4121742792854939e-01  7.7057718950783216e-01  7.9277998518795900e-01  8.0621075838591216e-01  8.0682780068705329e-01  7.9769659423281047e-01  7.7819090050938799e-01  7.4993106214453664e-01  7.1638439591091829e-01  6.7848068945651396e-01  6.4017528442623872e-01  6.0289611563280177e-01  5.6929222290002846e-01  5.4021252823163946e-01  5.1669688592295404e-01  4.9892624088642262e-01  4.8660654405669085e-01  4.7946486760166102e-01  4.7573175279136520e-01  4.7496018909383164e-01  1.8154577487649004e-01  1.7615958918571462e-01  1.7040942762261607e-01  1.6592920659916416e-01  1.3508114479555686e-01  4.7206719257064975e-02  -9.6242622047751122e-02  -2.1155415451008289e-01  -2.5089401881927043e-01  -1.8076776392541630e-01  -7.6210546492422551e-02  3.0802499204607793e-02  9.1664908070773404e-02  1.1643740534584607e-01  1.3299971775993397e-01  1.3837921180450877e-01  -1.1449966481739961e-01  -2.4659998216672904e-02  -3.4538044704446616e-02  -2.5187436472066282e-02  6.6844584476888833e-02  -5.9477327705927792e-02  -4.8874043909425097e-02  -6.2444190875274759e-02  1.1471995884697611e-01  5.2066888663131361e-02  -5.2878375244022287e-02  1.3661884485311857e-01  6.2483279935201939e-02  9.2555320817756012e-02  2.4780849485174797e-01  3.7608606745961552e-02  -1.3439932102630237e-01  2.1079879791226572e-01  5.2158647668233138e-02  2.7537355077020933e-03  1.0436024884521929e-01  1.4130893285904669e-01  -8.3432582434459043e-02  -1.3153159852318355e-01  3.6367028340227023e-02  1.8609170823794668e-01  -1.9792035348211656e-01  2.7159670711060857e-01  6.0568230780142389e-02  -6.2684306033600451e-02  2.3848917155014493e-01  -1.5045840325084395e-01  -2.1362731812273997e-02  -8.6632167275382824e-02  1.3077118271464516e-03  -3.1215301790543434e-02  -2.5963792436538975e-02  2.4272910292814828e-01  -4.2611072035189726e-03  -2.6944892214599080e-02  2.5387757096782551e-02  6.9861577603965701e-03  3.6139461889107917e-02  1.0292038106877581e-01  1.7142300418637221e-01  1.1217048679113378e-01  2.1094156212722759e-02  -1.1505385644596848e-01  8.9798696300270958e-02  7.9629847387262670e-02  2.4069770325165393e-01  -7.9767361454844157e-02  -7.8225311749495763e-02  5.5850390958634824e-02  1.6027151510145934e-01  2.3447108208084631e-02  -7.3576252750303120e-02  1.2135425561175968e-01  1.2714128917342196e-01  3.2722436237498570e-02  1.9016217561014828e-01  -1.5445706554277686e-01  -5.4223497130398479e-02  -5.3627014151384517e-02  2.4147925695423789e-01  1.1245647251161815e-01  -1.4544401368050150e-01  5.1769092052613139e-02  1.0703231816467572e-01  1.5021792635672057e-02  1.4694686199924151e-01  6.1859510084801242e-02  4.3423443202510209e-02  -1.1787402036588097e-01  9.4985300419560298e-02  -1.8599522226615767e-03  7.5097138357410484e-02  -9.9669167451518589e-02  -2.2873910608612821e-01  2.0228979910145684e-01  1.3677584285914188e-01  2.6081964979356426e-01  -1.2848281082415747e-01  4.0847559655358197e-02  1.1888964044103417e-01  7.9348901777184080e-02  -5.3593129226824902e-02  -1.8564833588462924e-02  1.1029917683394085e-01  1.5631882778563250e-01  -2.1657332259029427e-01  1.8333037356248474e-01  1.9162146419450157e-01  -1.1704733976990501e-01  -3.2005066401543832e-02  -9.8000569877107008e-02  4.0921566295546823e-02  3.3421422603935422e-02  6.3420540969524902e-02  -5.9958008325821287e-02  1.5520142882516998e-02  1.6987325661620332e-02  -7.1210600681914536e-03  1.8035426372230098e-01  5.4888929023974567e-03  -3.2215752736254967e-02  1.3558210342996235e-01  2.5235705506930456e-03  1.1158933837962962e-01  -1.9590935214490325e-02  1.7241954219862712e-01  -1.1723350499350738e-02  1.2805492749402825e-01  -7.9850937739171193e-02  6.1776057886068061e-02  1.7578189971573713e-01  -3.2371151003913419e-02  1.3002892985229952e-02  -2.5113523354777758e-02  -1.2770201499081597e-02  -5.9932787119955665e-02  2.9079955250451554e-03  -7.6250847255667678e-02  2.5286726671887416e-01  2.5904762362408518e-01  2.1731210825060909e-01  -6.9719692475668379e-02  -2.5241173834191447e-02  -6.0233758466016335e-02  5.2765746218124424e-02  -1.6974270694235623e-02  -6.2394421902697395e-02  1.9390370584899264e-01  -2.4175629136620976e-02  -1.1691073227603645e-01  1.9498744796313772e-01  1.5633277287307123e-03  2.9963888959692136e-02  9.9810255929194541e-02  6.3205122413328374e-02  1.7046755508896452e-01  9.0854599263156421e-02  -6.7790360304904679e-02  1.2656110745391974e-01  1.6236684941915480e-01  4.5100758382333489e-02  -6.9445197587973490e-02  2.2334658717054393e-01  1.0566238168938795e-01  1.3656978368884690e-01  1.7028097618402327e-01  -1.9975698077201762e-01  -1.4953635950693175e-01  1.5857873065348560e-01  -1.0972345762158481e-01  -1.2125757755088763e-01  -1.4834136091974204e-01  1.4357778478886743e-02  5.2220090770225054e-02  6.9657189942298608e-03  -3.6800846506605575e-02  -2.1264353464087806e-02  -7.7472099955623571e-03  -7.0773413673228786e-02  -8.8555301899107736e-02  -5.8343951776231397e-02  -1.8283725738054982e-02  5.9516282948642772e-02  8.6491000744884250e-02  -4.6910445616423900e-02  -1.5519818411186695e-01  7.9973607205932287e-02  -6.3031280364375343e-03  4.5920518704182456e-02  -5.7293836446757028e-02  -2.9267643523003789e-02  1.7241247413573031e-02  5.7811299350187820e-02  -3.4464048928769864e-02  -5.2786399744508244e-02  2.2503815825450768e-01  1.9535911660623395e-01  -1.0684347216596021e-01  -1.1375334492667032e-01  5.9968993097831089e-02  1.2186661973473299e-01  4.0303695833949119e-02  1.9267324092562849e-01  -3.6630437270525062e-02  3.2190286567815848e-02  1.1220864798659071e-01  1.7535532583359631e-01  7.9598540591755931e-02  2.4806071805282137e-01  -6.0427958807423292e-02  4.2696258229474336e-02  -5.3166248571105315e-02  4.0468050031953773e-04  2.6375550751813298e-01  5.3327115842204072e-02  2.1105260578779864e-01  -2.6210124134821446e-03  -6.7129643480025952e-02  7.3251481869345172e-02  7.6013336371980586e-02  -3.6119516340017921e-02  1.1312513607940534e-01  6.8611481193818921e-02  1.6227199580334048e-01  -4.0374753378402677e-02  -3.0948240604837692e-02  2.4180877154804528e-01  8.8023497720424421e-02  -9.3100640961601810e-02  -1.9043063673922479e-02  6.9084460170638184e-02  -1.2369677614861267e-01  9.9263962935806888e-02  2.5533065131729410e-01  1.2164844924015880e-01  -1.4119255723002811e-02  1.4655876523362513e-01  7.3337276132762433e-02  1.1991124203252830e-01  7.3194810172961644e-02  8.3497184511603581e-03  -4.3925584676603575e-02  1.3859966535905979e-01  7.0258462529122781e-02  6.4821589180713277e-02  2.8668670874109053e-03  -7.6716029538379429e-02  -1.2928916421876708e-02  9.6989218571428670e-02  2.1494357736005390e-01  9.3532340579657189e-02  -2.7593379501415518e-02  -8.6162865167360020e-02  1.2563045037973183e-01  1.9061087668145441e-01  2.6791613429289290e-01  -1.0050905979739244e-01  9.1918624493976281e-02  2.4166500101149440e-02  1.2798067030177512e-01  -1.3132113714172325e-02  2.1797784917037488e-02  -7.2437989797520017e-02  -2.2403528041570564e-01  3.3258408307164720e-02  1.1525328315742862e-01  1.8971720849264068e-01  -1.2918569173980246e-01  9.5711070073726826e-02  -2.1488520822768625e-02  6.6330930260100507e-02  2.7057813042352521e-02  -2.1740822336906249e-01  7.5622783191529791e-02  1.1864372679705990e-01  -6.0404254157201284e-02  9.2555492776666658e-03  2.3305018730745838e-01  1.4213364642207427e-01  1.8151132675242082e-01  -1.1552234455814617e-01  1.4027357957333836e-01  -6.6541034608614491e-02  2.3697046094491997e-01  2.6090662552404428e-02  4.2000497305677065e-02  -4.8135844306268945e-02  -1.0272394277572438e-02  -6.0820308693898713e-02  1.7740888206991728e-01  -3.0611934558967901e-01  2.2130650449249473e-01  -1.3514816445729655e-01  4.9882922849643699e-02  4.5041569790455586e-02  3.1851771642440692e-02  1.5972673772289819e-01  4.5825607560366140e-02  -2.8995204605347085e-03  4.4225020645809840e-02  1.7651518074269612e-01  1.0692070846540008e-01  -3.8351847652254981e-02  3.3639247612852703e-02  1.3772462328996060e-01  1.1413542390634369e-01  -5.7715658621279600e-02  -5.0093293208690444e-02  2.5252173812208227e-02  4.1297978373622556e-02  -4.6100497145471750e-02  3.2447469215311192e-02  2.1368549281548649e-01  4.0067950655150196e-02  -5.8700807723527773e-02  -1.3438211822225776e-01  4.1533928989853169e-02  1.4883084244120096e-01  -5.1438824594285726e-02  2.3835332448641736e-01  2.1375184136067582e-01  5.6330455933357414e-02  9.1662158519970574e-02  4.0428194742849234e-02  2.5574360928147548e-03  2.0705494376340633e-01  -1.7639500326614370e-02  2.0528392282156130e-01  -1.7133093612724404e-01  -7.6450202791810029e-02  -1.0133918645905193e-01  4.2849621165941369e-02  4.8152346699715465e-02  8.7643232034905080e-02  1.5959835042650317e-01  2.9467330782203094e-02  -4.2427639756937106e-02  1.9139454374798184e-01  2.3892326849544430e-02  1.0186544832690203e-01  2.7169983878056614e-01  -1.0388459959433925e-01  9.7190126522305326e-02  -1.1062494364848556e-01  7.5398574163754492e-02  3.8676905471763615e-03  1.7637273046217407e-02  5.7534113138864904e-02  -1.0378756995655429e-01  -2.9046619060710120e-02  -9.3461899921961966e-02  1.0317874103440705e-01  -4.9244570509183537e-02  -1.2752457757282787e-01  1.0665975431106636e-01  2.5622358440255788e-01  -1.1533807507778679e-01  -8.0335633266244225e-02  8.8370693651620199e-03  4.3412543455289380e-02  -1.7248926171242304e-01  2.4331229077761882e-01  -9.7961199836779575e-02  7.0784929613461917e-02  6.5621809160493899e-02  1.8651136687860222e-02  5.4587266386656570e-02  8.0834362061482710e-04  2.6394725098131605e-01  1.4395485173388328e-01  9.0301945577095366e-02  -9.3763639870364013e-02  -1.9184444243115421e-03  -3.1789270091631759e-02  1.3566017256472374e-01  8.8717148959530978e-02  1.4255229299741953e-01  1.1087426550430440e-01  -2.2322178227758105e-01  -1.0825201132447695e-02  5.4288674768662656e-02  2.9208737344719446e-04  8.0552974889884943e-02  1.8297608946439464e-01  -5.3786738857978522e-02  -4.9880306800383536e-02  -1.0517490320156307e-02  -5.0535049635438554e-02  3.1232929630288994e-02  1.9671534132029059e-01  2.2344901530718600e-01  -1.4961907553028073e-01  6.2709056610592007e-02  -8.0427206289796577e-02  1.5870697680698362e-01  2.9476357452163648e-02  -8.0696570408861412e-02  -7.0138346918957775e-02  1.2720894712322975e-01  3.1093263812651512e-02  1.3612142306703769e-02  -5.2382340870938057e-02  4.8409767417531467e-02  -2.5087354620335213e-02  1.9845882293994066e-01  -4.0629988004434001e-02  1.3984894874593029e-01  -9.8297114024071180e-02  9.0135900184717278e-03  -4.5089457504528523e-02  -3.0414164893219891e-02  5.3602674574718427e-03  1.6304021674094224e-01  1.4205149500338851e-01  9.8738255350775406e-03  1.5725916176729277e-01  1.1259956573579907e-01  -1.7515703307968939e-02  2.2641907347615198e-01  8.6744288247882412e-02  -1.0691425869174649e-01  -1.1564477038717519e-01  2.2039141609917211e-04  8.6512257912760224e-03  8.4231117509506348e-02  -4.8425075033462189e-02  9.2186276334899661e-02  1.3825426396908938e-01  6.7851412331460886e-02  -6.7354678692831085e-02  1.7344542952125425e-01  2.6839840189385337e-02  2.1119181236573571e-02  -1.1019745767153062e-02  5.3893182841272674e-02  9.5144494971235213e-02  -1.2971143082398585e-02  -1.1829086563402080e-01 