<?xml version="1.0"?>
<VTKFile type="UnstructuredGrid"  version="0.1"  >
<UnstructuredGrid>
<Piece  NumberOfPoints="4826" NumberOfCells="9274">
<Points>
<DataArray  type="Float64"  NumberOfComponents="3"  format="ascii">0.004357787137616029 0.04980973490456689 0  2.448294430073374e-13 0.05 0  -0.004357787137128233 0.04980973490460956 0  -0.004357787137605706 -0.04980973490456778 0  -2.344882876518267e-13 -0.05 0  0.004357787137138513 -0.04980973490460866 0  -0.2 -0.2 0  0.55 -0.2 0  2 -0.2 0  2 0.21 0  0.55 0.21 0  -0.2 0.21 0  0.002180969368511386 0.0499524110790822 0  -0.002180969368010819 0.04995241107910407 0  -0.002180969368502513 -0.04995241107908259 0  0.002180969368021486 -0.0499524110791036 0  -0.006814597157868607 0.04953343583455493 0  -0.009254746151924908 0.04913603233537922 0  -0.01167226819248128 0.04861849601995923 0  -0.01406125267347753 0.04798209221420657 0  -0.01641585876037609 0.04722837686348521 0  -0.01873032967049142 0.04635919272846228 0  -0.02099900674774951 0.04537666487973717 0  -0.0232163432975249 0.04428319550226104 0  -0.0253769181477669 0.04308145802223435 0  -0.02747544890327456 0.04177439057082161 0  -0.02950680486062692 0.04036518880070902 0  -0.03146601955223609 0.03885729807305569 0  -0.0333483028888871 0.03725440503391573 0  -0.03514905287103829 0.03556042860074884 0  -0.03686386684027007 0.03377951038104073 0  -0.0384885522433417 0.0319160045464898 0  -0.04001913688258778 0.02997446718746979 0  -0.04145187862754741 0.0279596451738408 0  -0.04278327456411638 0.0258764645493049 0  -0.04401006955882648 0.02373001848771415 0  -0.04512926421732728 0.02152555484076227 0  -0.04613812221762188 0.01926846330748221 0  -0.04703417700009761 0.01696426225697686 0  -0.04781523779803292 0.0146185852365256 0  -0.04847939499380464 0.01223716719811699 0  -0.04902502478771633 0.009825830477053876 0  -0.04945079316803359 0.007390470556897103 0  -0.04975565917250895 0.004937041655599784 0  -0.04993887743343513 0.002471542168028815 0  -0.05000000000000002 4.319617580295088e-13 0  -0.04993887743347691 -0.002471542167184487 0  -0.04975565917259078 -0.004937041654775128 0  -0.0494507931681559 -0.007390470556078771 0  -0.04902502478787634 -0.00982583047625548 0  -0.048479394994003 -0.01223716719733118 0  -0.04781523779827011 -0.01461858523574979 0  -0.04703417700037211 -0.01696426225621582 0  -0.04613812221792003 -0.01926846330676828 0  -0.04512926421765873 -0.0215255548400674 0  -0.0440100695591652 -0.02373001848708596 0  -0.04278327456447995 -0.0258764645487038 0  -0.04145187862791943 -0.02795964517328926 0  -0.04001913688296869 -0.02997446718696123 0  -0.03848855224374843 -0.03191600454599933 0  -0.03686386684070041 -0.03377951038057109 0  -0.03514905287149575 -0.03556042860029668 0  -0.03334830288936536 -0.03725440503348761 0  -0.03146601955271191 -0.03885729807267038 0  -0.02950680486109357 -0.0403651888003679 0  -0.02747544890375341 -0.04177439057050667 0  -0.02537691814821718 -0.0430814580219691 0  -0.02321634329799415 -0.04428319550201502 0  -0.02099900674823039 -0.04537666487951462 0  -0.01873032967097447 -0.04635919272826711 0  -0.0164158587608675 -0.0472283768633144 0  -0.01406125267397827 -0.04798209221405982 0  -0.01167226819300015 -0.04861849601983465 0  -0.00925474615244812 -0.04913603233528067 0  -0.006814597158347743 -0.04953343583448901 0  0.006814597157865879 -0.04953343583455529 0  0.009254746151927097 -0.0491360323353788 0  0.01167226819248615 -0.04861849601995805 0  0.01406125267347329 -0.04798209221420779 0  0.01641585876037412 -0.04722837686348589 0  0.01873032967049753 -0.04635919272845981 0  0.02099900674775168 -0.04537666487973616 0  0.02321634329751479 -0.04428319550226633 0  0.02537691814775486 -0.04308145802224143 0  0.02747544890326525 -0.04177439057082774 0  0.02950680486061762 -0.04036518880071581 0  0.03146601955222702 -0.03885729807306303 0  0.0333483028888813 -0.03725440503392092 0  0.03514905287103634 -0.03556042860075076 0  0.03686386684026893 -0.03377951038104196 0  0.03848855224333972 -0.03191600454649218 0  0.04001913688258468 -0.02997446718747393 0  0.04145187862754592 -0.02795964517384301 0  0.04278327456411439 -0.02587646454930818 0  0.04401006955882308 -0.02373001848772046 0  0.04512926421732501 -0.02152555484076704 0  0.04613812221761816 -0.01926846330749109 0  0.04703417700009521 -0.01696426225698355 0  0.04781523779803072 -0.01461858523653281 0  0.04847939499380377 -0.01223716719812044 0  0.04902502478771547 -0.009825830477058137 0  0.04945079316803235 -0.007390470556905473 0  0.04975565917250727 -0.004937041655616693 0  0.0499388774334346 -0.002471542168039619 0  0.05 -4.403257272689309e-13 0  0.04993887743347755 0.002471542167171875 0  0.04975565917259197 0.004937041654763091 0  0.04945079316815711 0.007390470556070629 0  0.04902502478787914 0.009825830476241509 0  0.04847939499400326 0.01223716719733013 0  0.04781523779826526 0.01461858523576567 0  0.0470341770003617 0.01696426225624468 0  0.04613812221791593 0.01926846330677807 0  0.04512926421764892 0.02152555484008794 0  0.04401006955917259 0.02373001848707224 0  0.04278327456448917 0.02587646454868855 0  0.04145187862794129 0.02795964517325684 0  0.04001913688300011 0.02997446718691929 0  0.03848855224377164 0.03191600454597132 0  0.03686386684071396 0.03377951038055631 0  0.03514905287149344 0.03556042860029895 0  0.03334830288935025 0.03725440503350112 0  0.03146601955270811 0.03885729807267346 0  0.0295068048611069 0.04036518880035816 0  0.02747544890376348 0.04177439057050004 0  0.02537691814825449 0.04308145802194713 0  0.02321634329801946 0.04428319550200175 0  0.02099900674825754 0.04537666487950205 0  0.01873032967100249 0.04635919272825579 0  0.0164158587608822 0.04722837686330929 0  0.01406125267398022 0.04798209221405924 0  0.01167226819298624 0.04861849601983799 0  0.009254746152419701 0.04913603233528602 0  0.006814597158349477 0.04953343583448876 0  -0.187519667561546 -0.2 0  -0.1748316574821168 -0.2 0  -0.1619325192212862 -0.2 0  -0.148818726846035 -0.2 0  -0.1354867192353635 -0.2 0  -0.1219328603917423 -0.2 0  -0.1081534592978099 -0.2 0  -0.09414476589796635 -0.2 0  -0.07990295884356099 -0.2 0  -0.06542416303692469 -0.2 0  -0.05070442887227664 -0.2 0  -0.03573975841838681 -0.2 0  -0.02052606515274366 -0.2 0  -0.005059208927244263 -0.2 0  0.01066502121897589 -0.2 0  0.0266509074223695 -0.2 0  0.04290280916834216 -0.2 0  0.05942514657702952 -0.2 0  0.0762224259839136 -0.2 0  0.09329921648059353 -0.2 0  0.110660175036538 -0.2 0  0.1283100227830172 -0.2 0  0.1462535753141169 -0.2 0  0.1644957199166657 -0.2 0  0.1830414159977267 -0.2 0  0.2018957233573105 -0.2 0  0.2210637763821503 -0.2 0  0.2405507887204602 -0.2 0  0.260362079066015 -0.2 0  0.2805030358280229 -0.2 0  0.3009791451426284 -0.2 0  0.3217959904068706 -0.2 0  0.3429592343744705 -0.2 0  0.3644746437000989 -0.2 0  0.3863480795092348 -0.2 0  0.4085854991020529 -0.2 0  0.4311929577241948 -0.2 0  0.4541766164908302 -0.2 0  0.4775427321916551 -0.2 0  0.5012976684604897 -0.2 0  0.5254479006641548 -0.2 0  0.5749999999999358 -0.2 0  0.5999999999998969 -0.2 0  0.6249999999998155 -0.2 0  0.6499999999998081 -0.2 0  0.6749999999997656 -0.2 0  0.6999999999997664 -0.2 0  0.7249999999997357 -0.2 0  0.7499999999996745 -0.2 0  0.7749999999995796 -0.2 0  0.7999999999995281 -0.2 0  0.8249999999994608 -0.2 0  0.8499999999994138 -0.2 0  0.8749999999993301 -0.2 0  0.8999999999992546 -0.2 0  0.9249999999991836 -0.2 0  0.9499999999990955 -0.2 0  0.9749999999990373 -0.2 0  0.9999999999989423 -0.2 0  1.024999999998847 -0.2 0  1.049999999998752 -0.2 0  1.074999999998672 -0.2 0  1.099999999998649 -0.2 0  1.124999999998554 -0.2 0  1.149999999998545 -0.2 0  1.174999999998451 -0.2 0  1.199999999998416 -0.2 0  1.224999999998348 -0.2 0  1.249999999998288 -0.2 0  1.274999999998288 -0.2 0  1.299999999998246 -0.2 0  1.324999999998369 -0.2 0  1.349999999998394 -0.2 0  1.37499999999845 -0.2 0  1.399999999998551 -0.2 0  1.424999999998531 -0.2 0  1.449999999998684 -0.2 0  1.474999999998642 -0.2 0  1.499999999998804 -0.2 0  1.524999999998773 -0.2 0  1.549999999998885 -0.2 0  1.574999999999013 -0.2 0  1.599999999999079 -0.2 0  1.624999999999119 -0.2 0  1.649999999999211 -0.2 0  1.674999999999224 -0.2 0  1.699999999999321 -0.2 0  1.724999999999342 -0.2 0  1.749999999999427 -0.2 0  1.774999999999474 -0.2 0  1.799999999999533 -0.2 0  1.824999999999605 -0.2 0  1.849999999999639 -0.2 0  1.874999999999735 -0.2 0  1.899999999999745 -0.2 0  1.924999999999841 -0.2 0  1.949999999999869 -0.2 0  1.974999999999947 -0.2 0  2 -0.1758823529412649 0  2 -0.1517647058824698 0  2 -0.12764705882371 0  2 -0.103529411764951 0  2 -0.07941176470620959 0  2 -0.05529411764745706 0  2 -0.03117647058865336 0  2 -0.007058823529918185 0  2 0.01705882352889865 0  2 0.04117647058779714 0  2 0.06529411764668486 0  2 0.08941176470558332 0  2 0.1135294117644398 0  2 0.137647058823337 0  2 0.1617647058822356 0  2 0.185882352941134 0  1.975000000000015 0.21 0  1.950000000000055 0.21 0  1.925000000000061 0.21 0  1.90000000000011 0.21 0  1.875000000000116 0.21 0  1.850000000000166 0.21 0  1.825000000000172 0.21 0  1.800000000000206 0.21 0  1.775000000000227 0.21 0  1.750000000000322 0.21 0  1.725000000000369 0.21 0  1.700000000000375 0.21 0  1.675000000000454 0.21 0  1.650000000000517 0.21 0  1.62500000000057 0.21 0  1.600000000000658 0.21 0  1.575000000000687 0.21 0  1.550000000000789 0.21 0  1.525000000000806 0.21 0  1.500000000000905 0.21 0  1.475000000001007 0.21 0  1.450000000001109 0.21 0  1.42500000000121 0.21 0  1.400000000001312 0.21 0  1.375000000001406 0.21 0  1.350000000001428 0.21 0  1.32500000000153 0.21 0  1.300000000001554 0.21 0  1.275000000001647 0.21 0  1.250000000001522 0.21 0  1.225000000001572 0.21 0  1.200000000001437 0.21 0  1.175000000001446 0.21 0  1.15000000000137 0.21 0  1.125000000001303 0.21 0  1.100000000001302 0.21 0  1.075000000001145 0.21 0  1.050000000001136 0.21 0  1.025000000000966 0.21 0  1.000000000000931 0.21 0  0.9750000000008732 0.21 0  0.9500000000008135 0.21
[...]
<PointData  Scalars="pressure"> 
<DataArray  type="Float64"  Name="pressure"  format="ascii">-7.9899411802783860e-01  -9.7625535494094784e-01  -9.8737623334261304e-01  -8.8329244272995877e-01  -7.9005246442289867e-01  -8.2241119031190379e-01  4.9860315255177567e-01  2.3594753267256269e-01  0.0000000000000000e+00  0.0000000000000000e+00  1.0547750527314222e-01  4.5395169567651450e-01  -8.9499632358048575e-01  -1.0129614365364314e+00  -8.0954111094478665e-01  -7.9707394625203720e-01  -1.0089550370351308e+00  -1.0144950478581942e+00  -1.0059972419174246e+00  -9.8626702068646288e-01  -9.5232501061172414e-01  -9.0189433381154482e-01  -8.3744358010529296e-01  -7.5926076403568654e-01  -6.6328352276848512e-01  -5.5036350519126931e-01  -4.2354217333342664e-01  -2.8788515397812520e-01  -1.4029047466103084e-01  2.2595113465605474e-02  1.8749146614585263e-01  3.6250192560706856e-01  5.3749010701571265e-01  7.1020731785842384e-01  8.8769321758768371e-01  1.0519649743042170e+00  1.2166038569013979e+00  1.3668396259785660e+00  1.5048344407088643e+00  1.6306737812676686e+00  1.7376443908714330e+00  1.8263919043960726e+00  1.8965687912915752e+00  1.9473839931769712e+00  1.9725100577804799e+00  1.9777378362844191e+00  1.9610494094300166e+00  1.9213177552469916e+00  1.8614213081889195e+00  1.7799952630828881e+00  1.6812375140593285e+00  1.5669834372844551e+00  1.4335334500511951e+00  1.2912495526982994e+00  1.1348261669922826e+00  9.6977478254435467e-01  8.0058275816557323e-01  6.2659719196416164e-01  4.5561943136249372e-01  2.8548031133991458e-01  1.1443820641131910e-01  -3.7905412408615356e-02  -1.9332812430895030e-01  -3.3045645262589241e-01  -4.5662765673844002e-01  -5.7048344007356511e-01  -6.7013260103330163e-01  -7.5020769739283588e-01  -8.2028325232376242e-01  -8.6751587995559210e-01  -9.0538964608713424e-01  -9.2318193287570616e-01  -9.2935438294781236e-01  -9.2049080035990904e-01  -9.0259126957760194e-01  -7.5946213687456077e-01  -7.1514492545910113e-01  -6.7311433383028441e-01  -6.3281782617761007e-01  -5.9681805530333110e-01  -5.6397729091438431e-01  -5.3487517420885644e-01  -5.0894272827357112e-01  -4.8621739974330763e-01  -4.6643792690563235e-01  -4.4902710025723896e-01  -4.3450613430970214e-01  -4.2262850950540193e-01  -4.1264644647994275e-01  -4.0498689208686445e-01  -3.9907183792258966e-01  -3.9521884861736428e-01  -3.9234037558101598e-01  -3.9070547918189297e-01  -3.8942813116197444e-01  -3.8874636280337932e-01  -3.8820843698994278e-01  -3.8766448821189442e-01  -3.8706875141684249e-01  -3.8675338059525455e-01  -3.8631030813724931e-01  -3.8644372290075885e-01  -3.8693913365666432e-01  -3.8819897559824268e-01  -3.9040747249833613e-01  -3.9368549524323082e-01  -3.9795339411726438e-01  -4.0371420604896080e-01  -4.1022451801276227e-01  -4.1774641559038300e-01  -4.2587903110950565e-01  -4.3451157457584094e-01  -4.4309591615559935e-01  -4.5180844584646673e-01  -4.6012955352519491e-01  -4.6791215193760777e-01  -4.7544017112127740e-01  -4.8251508431171874e-01  -4.8934655091320328e-01  -4.9626606929297568e-01  -5.0363421714303835e-01  -5.1173250423074423e-01  -5.2126919100141567e-01  -5.3233085866256824e-01  -5.4577962501197819e-01  -5.6147309505434917e-01  -5.8012222227666255e-01  -6.0164531138399291e-01  -6.2624696704919969e-01  -6.5396959944923405e-01  -6.8452363333929866e-01  -7.1735220641806263e-01  -7.5183387852843220e-01  -7.8808952338055671e-01  4.9794288447757695e-01  4.9711349168637575e-01  4.9542389487171440e-01  4.9300469850964984e-01  4.8915639222147422e-01  4.8352129372903863e-01  4.7530845801857663e-01  4.6407589174023312e-01  4.4851430915978230e-01  4.2842338350438719e-01  4.0294443952684006e-01  3.7115867061014057e-01  3.3501628968307218e-01  2.9326971811228197e-01  2.4902146053688951e-01  2.0416471146526943e-01  1.5972618881903902e-01  1.1658081157828415e-01  7.9747156362723892e-02  4.5314597711978662e-02  1.8385577286388014e-02  -4.4587996815672690e-03  -2.1061144342453826e-02  -3.5435550467258166e-02  -4.4016730648880863e-02  -5.1185806005892391e-02  -5.5316929039113207e-02  -5.7802486007144750e-02  -5.5918248492277792e-02  -4.5642157053570831e-02  -2.4918942065271080e-02  1.0470807650786141e-02  5.6408730633935165e-02  1.1308401016150633e-01  1.7172450214643670e-01  2.2977733334018594e-01  2.7501985389716999e-01  3.0747582308560678e-01  3.1467202729768401e-01  3.0834873198594992e-01  2.7693070742886472e-01  1.9402613954584338e-01  1.6149650921268949e-01  1.3577185099513275e-01  1.1318551678411921e-01  9.1879425069237505e-02  7.0475546186740512e-02  5.2216741135650460e-02  4.9416899557951276e-02  6.3971357077799787e-02  1.0174595593962006e-01  1.4972621108161091e-01  1.9564224201267894e-01  2.2860989816405058e-01  2.4579190610711663e-01  2.4302694573336112e-01  2.2942793201834025e-01  2.0496692844411737e-01  1.7499105621402861e-01  1.3673501905563848e-01  9.4637191366116327e-02  5.0153215221279607e-02  4.9128913916357004e-03  -2.3071550249733088e-02  -2.9647110048120807e-02  -3.8937297820331685e-03  4.6670816428581917e-02  1.0279853425682885e-01  1.5395862891027173e-01  1.8897786289201965e-01  2.0902841665475022e-01  2.0829641086711517e-01  1.9093260812279755e-01  1.5858714614949782e-01  1.1336767534843191e-01  6.4082133798077881e-02  1.8894280743852472e-02  -2.1546542041278035e-02  -4.5148517225573968e-02  -4.8105368112580579e-02  -3.6725194537457005e-02  -1.1008216551660220e-02  2.1224954876299038e-02  5.3709448481599753e-02  8.3797068615147713e-02  1.0545778787581177e-01  1.1822951465684255e-01  1.1813549749662966e-01  1.0767557052208433e-01  8.6337040373970497e-02  5.8589867642939018e-02  2.9143522527985837e-02  -1.4234961704350183e-03  -2.5470171149396328e-02  -4.0349353116772284e-02  -4.3221299026234991e-02  -3.4707770149490981e-02  -1.9008734959672542e-02  0.0000000000000000e+00  0.0000000000000000e+00  0.0000000000000000e+00  0.0000000000000000e+00  0.0000000000000000e+00  0.0000000000000000e+00  0.0000000000000000e+00  0.0000000000000000e+00  0.0000000000000000e+00  0.0000000000000000e+00  0.0000000000000000e+00  0.0000000000000000e+00  0.0000000000000000e+00  0.0000000000000000e+00  0.0000000000000000e+00  0.0000000000000000e+00  2.2189457649400550e-02  4.0362881415183689e-02  5.0936633661702244e-02  5.4304888626557031e-02  4.7598231602054342e-02  3.3358105750940448e-02  1.4908346897184148e-02  -6.7826728344633457e-03  -2.6970505648417388e-02  -4.0426567121057570e-02  -4.8294221521136847e-02  -4.5148143779869747e-02  -2.8616941115524080e-02  -1.7443001992340438e-03  3.2910976827786549e-02  7.1169674663457833e-02  1.0712255225393316e-01  1.3585051275116306e-01  1.5122282250255231e-01  1.5626109637086677e-01  1.4605566488059030e-01  1.2235867018648260e-01  8.8833193382373429e-02  4.5997069866580927e-02  3.8016870810986866e-03  -2.6340670792208892e-02  -4.2839836282829960e-02  -2.6830935394547246e-02  8.4987846133067080e-03  6.1351384611548314e-02  1.1332492072865029e-01  1.6231322313192681e-01  2.0422832574654654e-01  2.3143087086065561e-01  2.4396638796539016e-01  2.3713115953199812e-01  2.0556961580372976e-01  1.5734577883497808e-01  9.7243465135241555e-02  4.5752942732611698e-02  1.7382254075438568e-02  1.3403750922682109e-02  2.9695454893287787e-02  5.8439736987305431e-02  9.2387890051365384e-02  1.2540545245875981e-01  1.5564877551984979e-01  1.8092400334818143e-01  2.0197056347578904e-01  2.2098166022108484e-01  2.3405524658171306e-01  2.4043996773846552e-01  2.3763127983635651e-01  2.2336813790535415e-01  2.0037708224898665e-01  1.6977316413488633e-01  1.3907454840899078e-01  7.0278240587451676e-02  4.1167315278318836e-02  1.7845521196904780e-02  8.7325247125358569e-03  1.5033780115956907e-02  3.9984022913949424e-02  7.2447797641706876e-02  1.0898861020191304e-01  1.4129088788477073e-01  1.6097526257135689e-01  1.6821009935570597e-01  1.6625317069793683e-01  1.5612539384099153e-01  1.3958356218282394e-01  1.1915970744969601e-01  9.8068336092689973e-02  7.8594973797679477e-02  6.2379622101736878e-02  5.2405831894983608e-02  4.9666142734348197e-02  5.2695598973180220e-02  6.4394384013061773e-02  8.3429770859425267e-02  1.0809065027314423e-01  1.3911419607583458e-01  1.7376784353407626e-01  2.1037318234242208e-01  2.4758996043960302e-01  2.8347537570012005e-01  3.1685253769921551e-01  3.4606045438695304e-01  3.7192539159927696e-01  3.9297811387134085e-01  4.0982169080937397e-01  4.2353204521165339e-01  4.3350492134191232e-01  4.4121373580726930e-01  4.4642780235771357e-01  4.4997053076962112e-01  4.5210713224273119e-01  4.5327546058192525e-01  4.5381363204181630e-01  4.5488466800810085e-01  4.5861630415345933e-01  4.6614886767504898e-01  4.7833918896468525e-01  4.9599365928631139e-01  5.1921175639209394e-01  5.4785878797601151e-01  5.8137211071632067e-01  6.1886182052945682e-01  6.5820982642313153e-01  6.9787640672794471e-01  7.3497602279747865e-01  7.6666971541060602e-01  7.9136273716260896e-01  8.0740251754146131e-01  8.1068506051775857e-01  8.0419731413030648e-01  7.8725618481407000e-01  7.6142098535613978e-01  7.3012407237623245e-01  6.9423240811841103e-01  6.5770908081531587e-01  6.2194149989523151e-01  5.8960574453755121e-01  5.6154653982807468e-01  5.3882973414116464e-01  5.2164610515577592e-01  5.0973396354381328e-01  5.0283186257661328e-01  4.9922253309636300e-01  4.9847583358468500e-01  2.3782186838101146e-01  2.4200427117720788e-01  2.4850309604000065e-01  2.4615432527017644e-01  2.0115309126311570e-01  1.0412250187733926e-01  -1.0606958001987890e-02  -1.0338057534379323e-01  -1.5058881258117765e-01  -1.2247106989682530e-01  -4.0591393657058279e-02  2.9673196825584780e-02  6.2917090170322834e-02  8.0564102998343157e-02  9.5347024234732181e-02  1.0217443481307363e-01  -4.1057647473725749e-02  -2.1704850312850684e-02  -2.3558580809864615e-02  -1.4130813547972718e-02  7.2756212304876319e-02  -4.2212642630650533e-02  -1.7778403032986511e-02  -1.0908686715556386e-01  1.6243854581917977e-01  -3.5676862162782756e-02  -1.4142603554209929e-01  1.3382313929131415e-01  1.0382968582223860e-01  5.8374129892255190e-02  2.5288757495972242e-01  6.5750585050373705e-02  -8.7098978900944007e-02  6.2172192530731071e-02  9.9508704718724611e-02  -5.7995030981433791e-02  1.5541743549889511e-01  1.6087021851050873e-01  -1.1024896761561886e-01  -7.5734447715817069e-02  8.9815253457006861e-02  2.1473063076100099e-01  -1.6297013554039103e-01  2.6075705113610187e-01  2.5350385482134443e-02  -5.7350598146123616e-02  2.6777562840832819e-01  -1.1809470370439809e-01  -3.4395392331415593e-02  -3.3349186010594341e-02  5.6671297816834304e-02  -2.9105054057659004e-02  -2.2071775787393392e-02  2.1990373938505459e-01  -1.2972944483380067e-02  -2.7495661746288598e-02  -1.3518323339588972e-02  1.2759053065119487e-02  2.3639305801631399e-02  5.9236751067895041e-02  1.3449304630431611e-01  1.0181649764178725e-01  -1.3735714609170968e-02  -6.5760021397928262e-02  1.2265382252031241e-01  7.0364256326304983e-02  1.9591431992612215e-01  -7.1209127010248841e-02  -9.4621890849955134e-02  1.2138569989588043e-01  1.9780149250766704e-01  8.7382691491094164e-02  -5.5321420621199373e-02  1.4001126592302315e-01  1.5859583467784871e-01  -4.8558946388221572e-02  9.0456886136591474e-02  -1.5284346346610059e-01  5.0096765575431256e-03  -1.0369572571607246e-03  2.5980181382388012e-01  5.6392006271521508e-02  -1.7433881414274036e-01  8.0445987655096543e-02  1.1264070427631244e-01  -1.5753415403069425e-02  4.7196506582971942e-03  6.0680473800272097e-02  6.4725435094333400e-02  -1.2794850582684869e-01  5.4876339549133277e-02  5.5824298893931423e-02  9.5533522941862861e-02  -5.3994914750812625e-02  -9.3129403207277334e-02  2.4328036884114984e-01  1.6560736406943422e-01  2.3675584509599834e-01  -5.7995477668227484e-02  6.8211172873910139e-02  1.3911621809221833e-01  4.6758951687252623e-02  1.9810059084633441e-03  -6.5313381623767069e-02  1.4406067451074481e-01  7.6630006519403548e-02  -3.3019859998218043e-01  1.8887061442642022e-01  2.2105014234846709e-01  -8.0709244536470520e-02  -5.8085781275474625e-02  -1.1118975520274919e-01  8.2641395607085846e-02  7.7961532441310405e-02  7.0102073811880175e-02  -8.7189594123732464e-02  -2.4980775443917212e-02  -2.2634165413956606e-02  1.9291348882733348e-02  1.1898017864051487e-01  1.7559106835319721e-02  2.3627956560893226e-02  1.5665890880076239e-01  -3.1834648779721785e-03  6.0833227829953408e-02  1.3088770112380533e-02  1.7091510812571015e-01  -5.1322911745954342e-03  1.1329366359200534e-01  -4.6914372392801142e-02  1.0196427889047988e-01  2.0249332358894898e-01  -3.7347260404477715e-02  8.8522240265480872e-03  -4.7744449040923717e-02  -1.5844596864114505e-02  -7.1583335405544721e-02  1.2012715003627944e-02  -4.5584873513976082e-02  2.4064866382587788e-01  2.3161639022954023e-01  2.4537022277866288e-01  3.9137485221562539e-03  -6.2411781007774711e-02  -1.7464775255800202e-02  7.9372539944342277e-02  -1.3393041765090552e-01  -7.4949280712776262e-02  1.9317675886922181e-01  1.4184425599981986e-02  -1.9567704125098018e-01  6.5069493462306824e-02  -4.1406392476192842e-02  -1.7342754481072538e-02  1.4318716801636255e-01  6.4940153961089070e-02  8.6581842619723681e-02  1.5176380197107381e-01  -7.9324319795184936e-02  1.7869573028217292e-01  1.4736530238650206e-01  3.9089032566529881e-02  -3.7652416789789619e-03  2.4640097149803208e-01  1.3896816104008042e-01  1.6636763757077377e-01  1.1672523146957468e-01  -1.7131775424492549e-01  -1.2103386066310010e-01  1.3673371253221842e-01  -1.1622628753579420e-01  -1.5227110916554742e-01  -1.1552807693416121e-01  5.2179586151324286e-02  7.4048466631203708e-02  -1.3550132600916856e-01  -1.1714356928564474e-02  -7.7468509168994545e-02  6.4300384023588675e-03  -6.4222461805411094e-02  -1.1112256286661856e-01  8.8486932715313420e-03  -1.6463455135200686e-02  6.9316632640995635e-02  1.1250421155324557e-01  3.3263949885862835e-02  -1.5053830193692322e-01  -1.5484384834708748e-01  4.8536877774590446e-02  1.0534584773736252e-02  2.7444725107850245e-03  -1.5389169468585940e-02  4.8830727938506083e-02  7.8281637400484841e-02  -6.0449934090145825e-02  -5.9273709502286158e-02  2.2043605354128226e-01  2.3733089848940947e-01  -1.6651511013631989e-02  -7.2755648984383040e-02  1.9955854161380425e-02  1.6998969568858249e-01  3.7919590052258284e-02  1.4957347709307434e-01  -3.6235317297810057e-02  3.8402967849205064e-02  6.3288182603506007e-02  1.9777962948526559e-01  6.0444129845372577e-02  2.5550630642941929e-01  -6.4953781399369720e-02  8.4324836317660468e-02  -2.2137362499847532e-01  -8.4235966395912920e-04  2.6230075037303613e-01  3.7707261121247754e-02  2.3394123428000796e-01  4.7261076806538016e-02  -8.2639959223540557e-03  4.6127153133576113e-02  4.0460468486330697e-02  -6.7421302385144918e-02  5.3543486629163806e-02  2.3215848017641767e-02  1.3426752719110727e-01  -4.6035879230009466e-03  -5.7132795801648519e-03  2.5577925120259576e-01  1.3209999933091435e-01  -6.8304534442774956e-02  2.9917474509897481e-02  9.4890119832145001e-02  -1.0915880407241917e-01  8.3408799829442840e-02  2.0506146114909946e-01  3.7771749453513005e-02  -1.1162859938047533e-01  1.3903807970549095e-01  8.7147175323850704e-02  1.6707129568063667e-01  1.1463887528626103e-01  -2.4273586849339366e-02  -8.5740179704592551e-02  1.9188654612867601e-01  9.5781941487098121e-02  9.1007609382838334e-02  2.3753375300264133e-02  -3.0476521994065125e-02  1.6238832680499455e-03  1.1565411967114249e-01  1.6343007115261207e-01  1.2947848582778709e-01  -5.1681626884844359e-02  -1.4478890487035826e-02  5.4598587944289408e-02  2.2762488185842006e-01  2.6549044279153811e-01  -5.8663269807867770e-02  4.4924931224965090e-02  3.4884703576428304e-02  1.6553472361118654e-01  -1.9918188103627582e-02  7.0152751374548048e-04  -8.4432393817283499e-02  -1.8127592019438135e-01  9.4561334404436606e-02  5.1723525524609439e-02  1.8321431075030423e-01  -1.0233251373671069e-01  7.1692135851645633e-02  -4.4359923610063350e-02  6.8171092220565416e-02  1.1594869817639178e-02  -1.9073066839321662e-01  1.2269398374146828e-01  1.2507515744183867e-01  -5.8761380956921107e-02  1.4965268584838968e-02  1.5156756179292644e-01  1.7234470180564906e-01  2.0488371564984492e-01  -5.2579409177194988e-02  1.9458473179801600e-01  -5.1908034032133260e-02  2.0561318391229172e-01  -2.2677461988420446e-02  -2.0175176459188919e-02  1.9453466813039610e-02  4.6374768568746755e-02  -7.4513389512798123e-02  1.7819255714803076e-01  -1.9163910741703608e-01  2.3745553542349457e-01  -1.3835056649030836e-01  2.5322982106502760e-03  1.7950996714751040e-02  4.6469737124783951e-02  1.9622051252901027e-01  6.9255523804299599e-02  2.5343809877899640e-02  4.4900893427844361e-02  1.2489300289672216e-01  1.6957999342185412e-01  -4.2329825745787787e-02  9.1251063916538255e-02  1.5444094905943892e-01  8.5641781812043988e-02  -5.1080915541431217e-02  -2.7920852789698455e-02  -2.6167197371683354e-02  7.1765939114936672e-02  -1.0634760783255700e-02  -3.6633862039238595e-02  1.8569765953760245e-01  5.2563719749880158e-03  -7.8169590098735128e-02  -1.6665787690315340e-01  8.7141943552563453e-02  1.6067512473213227e-01  -6.0710765924172601e-03  2.4885629596102735e-01  1.5249961074158941e-01  4.8158159095775963e-02  1.1821962351954894e-01  1.0649572227912157e-01  5.7689627965966800e-02  2.3639318339017779e-01  -5.3470510573939610e-02  1.4696322004105200e-01  -1.2906227238310958e-01  -5.3675869419941249e-02  -1.4571887907156170e-01  4.7266316767283482e-02  -5.8134660495463772e-02  1.2661004914748747e-01  1.8846576564696957e-01  7.6399037619894486e-02  2.5066360264202305e-02  2.2926203492973748e-01  5.7115729403677748e-02  1.3354974787980783e-01  2.0083192506441000e-01  -2.8494480412030707e-02  1.2957853396806368e-01  -5.3669589899095919e-02  -7.4188973023418328e-02  2.9871905265605896e-03  -1.8239459941851079e-02  7.9444263983229735e-02  -8.9411973267778111e-02  -2.4359309641975559e-02  -9.4840706192054203e-02  1.2317378869012502e-01  -8.9973199368673387e-02  -9.8911975957628309e-02  8.2284764129221019e-02  2.7665804149761902e-01  -1.1543908828337576e-01  -1.5337745795235183e-01  -2.9349433916100433e-02  6.1237187736396040e-02  -9.2201600408843593e-02  2.2431756051289101e-01  -5.3365694385204165e-02  4.1651217049285670e-02  5.4496950528765624e-02  2.6227660311409856e-02  1.4992534180863467e-02  2.2023688614806726e-02  2.7299378449778361e-01  1.6904447438140885e-01  5.2228928169812464e-02  -1.2197593793207265e-01  1.1204048833198211e-02  -5.0993325937293811e-02  1.0483355012329335e-01  1.2101361464588611e-01  1.0518214145509421e-01  1.1936950176110819e-01  -1.9622509747453193e-01  2.9808426017894522e-02  1.0815649727303496e-01  1.5720637698316206e-03  -1.1758810159274491e-02  2.0557942116321465e-01  1.8700786346203299e-02  -6.3308608338511471e-02  -4.1700489044828613e-02  -5.6074864816780610e-02  4.8199783552853384e-03  1.3188538919467552e-01  1.6696073823282975e-01  -1.3426635104330523e-01  1.0906922664483663e-01  -2.2224993150169375e-02  1.0150572985155003e-01  -2.1267546076045157e-01  -1.0993089305402672e-01  -8.5452291373060485e-02  1.3540691665736246e-01  -3.1743123719455992e-03  4.2249646241100017e-02  -8.0347951394644998e-02  -1.1550478322935875e-02  3.8335263142670592e-02  2.1948509057712348e-01  -2.4844159099189463e-02  8.7632556822300908e-02  -5.2235534804244740e-02  1.7898082542902934e-02  -7.4016728113992227e-03  -4.0651970774789978e-02  5.5157403104980809e-02  1.5747249188628190e-01  1.8352787407740440e-01  1.7357305066189394e-02  1.1549770530049196e-01  1.2866492714717687e-01  1.4775377962147807e-02  2.4992174028593930e-01  3.7290225473933042e-02  -1.3808937540236724e-01  -1.2145176604590803e-01  7.1905779515963374e-03  6.6565415866620667e-02  1.3272432144764637e-01  -6.3357364014291553e-02  1.2636417046596715e-01  1.4871353422333389e-01  1.3646527815308773e-01  -5.9652364539788227e-02  1.2562334337614256e-01  6.4520596624105350e-02  3.1848094507722635e-02  -1.0020507551622138e-02  9.0649556750079088e-02  1.3159845477872628e-01  -3.2727221457566569e-02  -5.4586852046623759e-02 