<?xml version="1.0"?>
<VTKFile type="UnstructuredGrid"  version="0.1"  >
<UnstructuredGrid>
<Piece  NumberOfPoints="4826" NumberOfCells="9274">
<Points>
<DataArray  type="Float64"  NumberOfComponents="3"  format="ascii">0.004357787137616029 0.04980973490456689 0  2.448294430073374e-13 0.05 0  -0.004357787137128233 0.04980973490460956 0  -0.004357787137605706 -0.04980973490456778 0  -2.344882876518267e-13 -0.05 0  0.004357787137138513 -0.04980973490460866 0  -0.2 -0.2 0  0.55 -0.2 0  2 -0.2 0  2 0.21 0  0.55 0.21 0  -0.2 0.21 0  0.002180969368511386 0.0499524110790822 0  -0.002180969368010819 0.04995241107910407 0  -0.002180969368502513 -0.04995241107908259 0  0.002180969368021486 -0.0499524110791036 0  -0.006814597157868607 0.04953343583455493 0  -0.009254746151924908 0.04913603233537922 0  -0.01167226819248128 0.04861849601995923 0  -0.01406125267347753 0.04798209221420657 0  -0.01641585876037609 0.04722837686348521 0  -0.01873032967049142 0.04635919272846228 0  -0.02099900674774951 0.04537666487973717 0  -0.0232163432975249 0.04428319550226104 0  -0.0253769181477669 0.04308145802223435 0  -0.02747544890327456 0.04177439057082161 0  -0.02950680486062692 0.04036518880070902 0  -0.03146601955223609 0.03885729807305569 0  -0.0333483028888871 0.03725440503391573 0  -0.03514905287103829 0.03556042860074884 0  -0.03686386684027007 0.03377951038104073 0  -0.0384885522433417 0.0319160045464898 0  -0.04001913688258778 0.02997446718746979 0  -0.04145187862754741 0.0279596451738408 0  -0.04278327456411638 0.0258764645493049 0  -0.04401006955882648 0.02373001848771415 0  -0.04512926421732728 0.02152555484076227 0  -0.04613812221762188 0.01926846330748221 0  -0.04703417700009761 0.01696426225697686 0  -0.04781523779803292 0.0146185852365256 0  -0.04847939499380464 0.01223716719811699 0  -0.04902502478771633 0.009825830477053876 0  -0.04945079316803359 0.007390470556897103 0  -0.04975565917250895 0.004937041655599784 0  -0.04993887743343513 0.002471542168028815 0  -0.05000000000000002 4.319617580295088e-13 0  -0.04993887743347691 -0.002471542167184487 0  -0.04975565917259078 -0.004937041654775128 0  -0.0494507931681559 -0.007390470556078771 0  -0.04902502478787634 -0.00982583047625548 0  -0.048479394994003 -0.01223716719733118 0  -0.04781523779827011 -0.01461858523574979 0  -0.04703417700037211 -0.01696426225621582 0  -0.04613812221792003 -0.01926846330676828 0  -0.04512926421765873 -0.0215255548400674 0  -0.0440100695591652 -0.02373001848708596 0  -0.04278327456447995 -0.0258764645487038 0  -0.04145187862791943 -0.02795964517328926 0  -0.04001913688296869 -0.02997446718696123 0  -0.03848855224374843 -0.03191600454599933 0  -0.03686386684070041 -0.03377951038057109 0  -0.03514905287149575 -0.03556042860029668 0  -0.03334830288936536 -0.03725440503348761 0  -0.03146601955271191 -0.03885729807267038 0  -0.02950680486109357 -0.0403651888003679 0  -0.02747544890375341 -0.04177439057050667 0  -0.02537691814821718 -0.0430814580219691 0  -0.02321634329799415 -0.04428319550201502 0  -0.02099900674823039 -0.04537666487951462 0  -0.01873032967097447 -0.04635919272826711 0  -0.0164158587608675 -0.0472283768633144 0  -0.01406125267397827 -0.04798209221405982 0  -0.01167226819300015 -0.04861849601983465 0  -0.00925474615244812 -0.04913603233528067 0  -0.006814597158347743 -0.04953343583448901 0  0.006814597157865879 -0.04953343583455529 0  0.009254746151927097 -0.0491360323353788 0  0.01167226819248615 -0.04861849601995805 0  0.01406125267347329 -0.04798209221420779 0  0.01641585876037412 -0.04722837686348589 0  0.01873032967049753 -0.04635919272845981 0  0.02099900674775168 -0.04537666487973616 0  0.02321634329751479 -0.04428319550226633 0  0.02537691814775486 -0.04308145802224143 0  0.02747544890326525 -0.04177439057082774 0  0.02950680486061762 -0.04036518880071581 0  0.03146601955222702 -0.03885729807306303 0  0.0333483028888813 -0.03725440503392092 0  0.03514905287103634 -0.03556042860075076 0  0.03686386684026893 -0.03377951038104196 0  0.03848855224333972 -0.03191600454649218 0  0.04001913688258468 -0.02997446718747393 0  0.04145187862754592 -0.02795964517384301 0  0.04278327456411439 -0.02587646454930818 0  0.04401006955882308 -0.02373001848772046 0  0.04512926421732501 -0.02152555484076704 0  0.04613812221761816 -0.01926846330749109 0  0.04703417700009521 -0.01696426225698355 0  0.04781523779803072 -0.01461858523653281 0  0.04847939499380377 -0.01223716719812044 0  0.04902502478771547 -0.009825830477058137 0  0.04945079316803235 -0.007390470556905473 0  0.04975565917250727 -0.004937041655616693 0  0.0499388774334346 -0.002471542168039619 0  0.05 -4.403257272689309e-13 0  0.04993887743347755 0.002471542167171875 0  0.04975565917259197 0.004937041654763091 0  0.04945079316815711 0.007390470556070629 0  0.04902502478787914 0.009825830476241509 0  0.04847939499400326 0.01223716719733013 0  0.04781523779826526 0.01461858523576567 0  0.0470341770003617 0.01696426225624468 0  0.04613812221791593 0.01926846330677807 0  0.04512926421764892 0.02152555484008794 0  0.04401006955917259 0.02373001848707224 0  0.04278327456448917 0.02587646454868855 0  0.04145187862794129 0.02795964517325684 0  0.04001913688300011 0.02997446718691929 0  0.03848855224377164 0.03191600454597132 0  0.03686386684071396 0.03377951038055631 0  0.03514905287149344 0.03556042860029895 0  0.03334830288935025 0.03725440503350112 0  0.03146601955270811 0.03885729807267346 0  0.0295068048611069 0.04036518880035816 0  0.02747544890376348 0.04177439057050004 0  0.02537691814825449 0.04308145802194713 0  0.02321634329801946 0.04428319550200175 0  0.02099900674825754 0.04537666487950205 0  0.01873032967100249 0.04635919272825579 0  0.0164158587608822 0.04722837686330929 0  0.01406125267398022 0.04798209221405924 0  0.01167226819298624 0.04861849601983799 0  0.009254746152419701 0.04913603233528602 0  0.006814597158349477 0.04953343583448876 0  -0.187519667561546 -0.2 0  -0.1748316574821168 -0.2 0  -0.1619325192212862 -0.2 0  -0.148818726846035 -0.2 0  -0.1354867192353635 -0.2 0  -0.1219328603917423 -0.2 0  -0.1081534592978099 -0.2 0  -0.09414476589796635 -0.2 0  -0.07990295884356099 -0.2 0  -0.06542416303692469 -0.2 0  -0.05070442887227664 -0.2 0  -0.03573975841838681 -0.2 0  -0.02052606515274366 -0.2 0  -0.005059208927244263 -0.2 0  0.01066502121897589 -0.2 0  0.0266509074223695 -0.2 0  0.04290280916834216 -0.2 0  0.05942514657702952 -0.2 0  0.0762224259839136 -0.2 0  0.09329921648059353 -0.2 0  0.110660175036538 -0.2 0  0.1283100227830172 -0.2 0  0.1462535753141169 -0.2 0  0.1644957199166657 -0.2 0  0.1830414159977267 -0.2 0  0.2018957233573105 -0.2 0  0.2210637763821503 -0.2 0  0.2405507887204602 -0.2 0  0.260362079066015 -0.2 0  0.2805030358280229 -0.2 0  0.3009791451426284 -0.2 0  0.3217959904068706 -0.2 0  0.3429592343744705 -0.2 0  0.3644746437000989 -0.2 0  0.3863480795092348 -0.2 0  0.4085854991020529 -0.2 0  0.4311929577241948 -0.2 0  0.4541766164908302 -0.2 0  0.4775427321916551 -0.2 0  0.5012976684604897 -0.2 0  0.5254479006641548 -0.2 0  0.5749999999999358 -0.2 0  0.5999999999998969 -0.2 0  0.6249999999998155 -0.2 0  0.6499999999998081 -0.2 0  0.6749999999997656 -0.2 0  0.6999999999997664 -0.2 0  0.7249999999997357 -0.2 0  0.7499999999996745 -0.2 0  0.7749999999995796 -0.2 0  0.7999999999995281 -0.2 0  0.8249999999994608 -0.2 0  0.8499999999994138 -0.2 0  0.8749999999993301 -0.2 0  0.8999999999992546 -0.2 0  0.9249999999991836 -0.2 0  0.9499999999990955 -0.2 0  0.9749999999990373 -0.2 0  0.9999999999989423 -0.2 0  1.024999999998847 -0.2 0  1.049999999998752 -0.2 0  1.074999999998672 -0.2 0  1.099999999998649 -0.2 0  1.124999999998554 -0.2 0  1.149999999998545 -0.2 0  1.174999999998451 -0.2 0  1.199999999998416 -0.2 0  1.224999999998348 -0.2 0  1.249999999998288 -0.2 0  1.274999999998288 -0.2 0  1.299999999998246 -0.2 0  1.324999999998369 -0.2 0  1.349999999998394 -0.2 0  1.37499999999845 -0.2 0  1.399999999998551 -0.2 0  1.424999999998531 -0.2 0  1.449999999998684 -0.2 0  1.474999999998642 -0.2 0  1.499999999998804 -0.2 0  1.524999999998773 -0.2 0  1.549999999998885 -0.2 0  1.574999999999013 -0.2 0  1.599999999999079 -0.2 0  1.624999999999119 -0.2 0  1.649999999999211 -0.2 0  1.674999999999224 -0.2 0  1.699999999999321 -0.2 0  1.724999999999342 -0.2 0  1.749999999999427 -0.2 0  1.774999999999474 -0.2 0  1.799999999999533 -0.2 0  1.824999999999605 -0.2 0  1.849999999999639 -0.2 0  1.874999999999735 -0.2 0  1.899999999999745 -0.2 0  1.924999999999841 -0.2 0  1.949999999999869 -0.2 0  1.974999999999947 -0.2 0  2 -0.1758823529412649 0  2 -0.1517647058824698 0  2 -0.12764705882371 0  2 -0.103529411764951 0  2 -0.07941176470620959 0  2 -0.05529411764745706 0  2 -0.03117647058865336 0  2 -0.007058823529918185 0  2 0.01705882352889865 0  2 0.04117647058779714 0  2 0.06529411764668486 0  2 0.08941176470558332 0  2 0.1135294117644398 0  2 0.137647058823337 0  2 0.1617647058822356 0  2 0.185882352941134 0  1.975000000000015 0.21 0  1.950000000000055 0.21 0  1.925000000000061 0.21 0  1.90000000000011 0.21 0  1.875000000000116 0.21 0  1.850000000000166 0.21 0  1.825000000000172 0.21 0  1.800000000000206 0.21 0  1.775000000000227 0.21 0  1.750000000000322 0.21 0  1.725000000000369 0.21 0  1.700000000000375 0.21 0  1.675000000000454 0.21 0  1.650000000000517 0.21 0  1.62500000000057 0.21 0  1.600000000000658 0.21 0  1.575000000000687 0.21 0  1.550000000000789 0.21 0  1.525000000000806 0.21 0  1.500000000000905 0.21 0  1.475000000001007 0.21 0  1.450000000001109 0.21 0  1.42500000000121 0.21 0  1.400000000001312 0.21 0  1.375000000001406 0.21 0  1.350000000001428 0.21 0  1.32500000000153 0.21 0  1.300000000001554 0.21 0  1.275000000001647 0.21 0  1.250000000001522 0.21 0  1.225000000001572 0.21 0  1.200000000001437 0.21 0  1.175000000001446 0.21 0  1.15000000000137 0.21 0  1.125000000001303 0.21 0  1.100000000001302 0.21 0  1.075000000001145 0.21 0  1.050000000001136 0.21 0  1.025000000000966 0.21 0  1.000000000000931 0.21 0  0.9750000000008732 0.21 0  0.9500000000008135 0.21
[...]
<PointData  Scalars="pressure"> 
<DataArray  type="Float64"  Name="pressure"  format="ascii">-8.0277591890281497e-01  -8.2623657255375182e-01  -8.7457149707145543e-01  -1.0042709188144741e+00  -9.4752394457637024e-01  -8.4297432940976857e-01  4.6453584804133741e-01  1.5723196666873504e-01  0.0000000000000000e+00  0.0000000000000000e+00  1.5915087692327695e-01  4.7874231470400508e-01  -8.1005919978047802e-01  -8.4218179721797981e-01  -9.8984456843720059e-01  -8.9772428284029249e-01  -8.8616580739582862e-01  -8.9595338914595823e-01  -8.9241969873134597e-01  -8.7727181037304935e-01  -8.4838477391238065e-01  -8.0286035730014327e-01  -7.4326492857772763e-01  -6.6991024036476743e-01  -5.7873606870862082e-01  -4.7059372008092387e-01  -3.4853318448632314e-01  -2.1722262906826517e-01  -7.4048276035985156e-02  8.4335434610400342e-02  2.4506337734536113e-01  4.1572559089536754e-01  5.8659743540149933e-01  7.5521297081112404e-01  9.2847701604592925e-01  1.0887338494786314e+00  1.2491241863055291e+00  1.3952111778592104e+00  1.5290201057039841e+00  1.6505949895259979e+00  1.7532889574889661e+00  1.8377732906642767e+00  1.9035618765831128e+00  1.9499904496661136e+00  1.9707538449496169e+00  1.9715781144230375e+00  1.9505005508001896e+00  1.9063746807984492e+00  1.8421286241821972e+00  1.7563401594596073e+00  1.6532902129560969e+00  1.5348374371853495e+00  1.3971433913027809e+00  1.2507320594843168e+00  1.0901452794603628e+00  9.2093211731678160e-01  7.4762551671132194e-01  5.6951828588601228e-01  3.9445440761560041e-01  2.2021894695445662e-01  4.4805195335329361e-02  -1.1144149388781867e-01  -2.7149975537186383e-01  -4.1289269548882601e-01  -5.4355597100449360e-01  -6.6202299994041669e-01  -7.6644905678587283e-01  -8.5124920039178331e-01  -9.2629669519825453e-01  -9.7832083460219810e-01  -1.0210829756960493e+00  -1.0437938749361351e+00  -1.0544576850568872e+00  -1.0504897264991515e+00  -1.0362426262114828e+00  -8.0948703679848599e-01  -7.6886823855522812e-01  -7.2816375095908303e-01  -6.8841863768526146e-01  -6.5205743141816586e-01  -6.1862927542686319e-01  -5.8863518510698298e-01  -5.6179143710219992e-01  -5.3807680299806471e-01  -5.1741552991828255e-01  -4.9922464659840898e-01  -4.8412564268647723e-01  -4.7183213129071883e-01  -4.6161486234332799e-01  -4.5380323107404019e-01  -4.4775989049426651e-01  -4.4368668433589104e-01  -4.4042594673732316e-01  -4.3812469907521989e-01  -4.3601450183331025e-01  -4.3385899293646002e-01  -4.3161083723929067e-01  -4.2879516546702989e-01  -4.2542499119506499e-01  -4.2190513143740188e-01  -4.1757235846429802e-01  -4.1341159505352393e-01  -4.0904433067855839e-01  -4.0505126729447982e-01  -4.0167853463629050e-01  -3.9906204043288201e-01  -3.9746668578936312e-01  -3.9730907190245851e-01  -3.9802689687407172e-01  -4.0018489553223024e-01  -4.0335597869725054e-01  -4.0748335230576649e-01  -4.1226763941314254e-01  -4.1779186156135695e-01  -4.2359079986650083e-01  -4.2959841702280910e-01  -4.3586358613989873e-01  -4.4225403923647677e-01  -4.4877038491120513e-01  -4.5560202587339771e-01  -4.6299848414650613e-01  -4.7110145453029456e-01  -4.8050466730893904e-01  -4.9121998221780228e-01  -5.0414639349888546e-01  -5.1911754965147727e-01  -5.3700636375980237e-01  -5.5770856523084567e-01  -5.8165873960376790e-01  -6.0886414601436534e-01  -6.3934625121232280e-01  -6.7271086346011888e-01  -7.0935615754757519e-01  -7.4693492055374411e-01  4.6389541640038995e-01  4.6307952263263158e-01  4.6131993380394637e-01  4.5873261978222207e-01  4.5453602189111714e-01  4.4832800169283271e-01  4.3924114670590242e-01  4.2682489642126981e-01  4.0974118589840414e-01  3.8783307677552287e-01  3.6033773546114006e-01  3.2634649096932844e-01  2.8810170584324130e-01  2.4429614060316088e-01  1.9833019961605405e-01  1.5219734446236474e-01  1.0696315752989048e-01  6.3528969277772351e-02  2.6994630501385355e-02  -6.4151865223609208e-03  -3.1606139221013518e-02  -5.1763399103187079e-02  -6.4632485985326352e-02  -7.4213667565073235e-02  -7.6383040966384139e-02  -7.4815335994561569e-02  -6.7451756401415638e-02  -5.3875955227982025e-02  -3.2775760601620130e-02  -1.2738165115061778e-03  4.1750267067736511e-02  9.4190434636239218e-02  1.5130991017628997e-01  2.0904176808308769e-01  2.5938974784686519e-01  2.9945938075279627e-01  3.1842260725426291e-01  3.1894355743588854e-01  2.9111332246027627e-01  2.5150126328120753e-01  2.0204596690518536e-01  1.2368115277122214e-01  1.0482931747480383e-01  9.0943662828767632e-02  7.6283431600230892e-02  6.2271151298822880e-02  5.6329036410436149e-02  6.3969445586380763e-02  9.1557178894513161e-02  1.3214378214898642e-01  1.7747609227490313e-01  2.1531084407867643e-01  2.3678132911583513e-01  2.4067232682783751e-01  2.3290934209099620e-01  2.1299245103507705e-01  1.8632371471473017e-01  1.5380623853469172e-01  1.1713479537562219e-01  7.3804873997275380e-02  2.9259412367069162e-02  -7.2870460695886492e-03  -2.9083088924831409e-02  -1.8931799591212377e-02  1.7248721438117180e-02  7.0533234098866041e-02  1.2969550532023871e-01  1.7578100156730009e-01  2.0573998733650417e-01  2.1375304731474296e-01  2.0596237074619111e-01  1.8030727358490128e-01  1.3957989280029867e-01  9.0621893842453144e-02  3.8416128427435935e-02  -8.9709244044313477e-03  -3.8107710067881821e-02  -5.3233442767408691e-02  -5.0143095499909557e-02  -2.7614208829295415e-02  2.6087705407791218e-03  3.7274630727637002e-02  7.0564916193815358e-02  9.5983975718404391e-02  1.1241963492118807e-01  1.1562425707463327e-01  1.0845196695128496e-01  8.9180551695556956e-02  6.2259969685733357e-02  2.8625423948877012e-02  -6.0378658546254745e-03  -3.5626193470415596e-02  -5.8746693979201403e-02  -7.0222039359379526e-02  -6.9471396891776421e-02  -5.7961519125515844e-02  -3.8880159296471956e-02  -1.8855083525892418e-02  0.0000000000000000e+00  0.0000000000000000e+00  0.0000000000000000e+00  0.0000000000000000e+00  0.0000000000000000e+00  0.0000000000000000e+00  0.0000000000000000e+00  0.0000000000000000e+00  0.0000000000000000e+00  0.0000000000000000e+00  0.0000000000000000e+00  0.0000000000000000e+00  0.0000000000000000e+00  0.0000000000000000e+00  0.0000000000000000e+00  0.0000000000000000e+00  2.3789875195824685e-02  4.6705730462067753e-02  6.6257343555161344e-02  8.0013680814539787e-02  8.3086770169009561e-02  7.7140051889688879e-02  6.3568545446670052e-02  4.2500171754757718e-02  1.8677206799544405e-02  -3.6908622994648974e-03  -2.6274426025639525e-02  -4.0838084233753368e-02  -4.5426378804228847e-02  -3.7625385440244505e-02  -1.5786841325915759e-02  1.6772194026766329e-02  5.5618627549507083e-02  9.3711794872556764e-02  1.2646814067159079e-01  1.5055906735548416e-01  1.6144688888500275e-01  1.5858133530542812e-01  1.4147391551280500e-01  1.0845593806221025e-01  6.7529855911104206e-02  2.2022394806139545e-02  -2.1172059193325696e-02  -4.1847492152157842e-02  -4.0028065500260487e-02  -9.1034416182696649e-03  3.5588605086919328e-02  8.8486587235949252e-02  1.3961501915661315e-01  1.8139215399893618e-01  2.1572702230346449e-01  2.3550319927980817e-01  2.4010261570786529e-01  2.2525240724606296e-01  1.8566415971117600e-01  1.3160873227304715e-01  7.7278333305743754e-02  3.3756753695609279e-02  1.5110783353372070e-02  1.9906102773832521e-02  4.3888398279144099e-02  7.3679253865797087e-02  1.0698853108286627e-01  1.3664232835723072e-01  1.6249727212558998e-01  1.8647683041551508e-01  2.0638961467379349e-01  2.2398814323336369e-01  2.3719979788828333e-01  2.4263959985154596e-01  2.3746933836750383e-01  2.2006598245264744e-01  1.9462643202479668e-01  1.1825962866654594e-01  7.8446088479176654e-02  3.7361886518083171e-02  5.8610386870527808e-03  -1.4354351060355753e-02  -1.5604772544956231e-02  -5.7960673582434178e-03  2.0225020901545692e-02  5.0696956255316901e-02  7.8501725919668933e-02  9.8457603103115035e-02  1.1171462663487279e-01  1.1612465081590255e-01  1.1458246978373095e-01  1.0900705209314457e-01  1.0086127076389968e-01  9.2562799807233601e-02  8.5509132598117890e-02  8.2504736037587817e-02  8.4745384242178590e-02  9.1408097648499456e-02  1.0535822440651797e-01  1.2554061373237443e-01  1.5064202183774469e-01  1.8131017102494729e-01  2.1507018852215318e-01  2.5035651672366149e-01  2.8597402510690051e-01  3.1992892750624219e-01  3.5132352206761930e-01  3.7859471636831254e-01  4.0258544316020045e-01  4.2203806767589297e-01  4.3755251280785207e-01  4.5017287362685182e-01  4.5938141238071978e-01  4.6653751447909048e-01  4.7143186933416609e-01  4.7480332389853835e-01  4.7688010935403408e-01  4.7804801706490868e-01  4.7861471165041591e-01  4.7964199279230885e-01  4.8320331089335167e-01  4.9039399954468899e-01  5.0203647543497598e-01  5.1889435219317792e-01  5.4105169256392505e-01  5.6833505555060770e-01  6.0016801795197772e-01  6.3563063398009445e-01  6.7260176019504392e-01  7.0955354628026901e-01  7.4360872012571111e-01  7.7196616456013289e-01  7.9310369659449220e-01  8.0542171835587539e-01  8.0490336309117916e-01  7.9464542187923082e-01  7.7404443930691824e-01  7.4474520418565293e-01  7.1022953212782436e-01  6.7145258798574425e-01  6.3236763367457927e-01  5.9441943001591191e-01  5.6024757112392287e-01  5.3070351598812138e-01  5.0681791354769046e-01  4.8876868275966368e-01  4.7625025522823461e-01  4.6898641638164712e-01  4.6518584840418536e-01  4.6439681320980852e-01  1.5439568613705532e-01  1.4531977423417688e-01  1.3472502494670877e-01  1.2903181049729448e-01  1.0693472983844345e-01  4.4604336946059892e-02  -6.9410317185516865e-02  -1.7195616624045248e-01  -2.1513853052108059e-01  -1.4576683335968041e-01  -4.9383776450021913e-02  5.3544557213153855e-02  1.1431432934058432e-01  1.3744120510191110e-01  1.5289661987748460e-01  1.5677685473426342e-01  -1.4292474360689578e-01  -2.8838193096727621e-02  -3.9077197671382485e-02  -3.1418794919000022e-02  6.2020649087765681e-02  -6.7204356187727715e-02  -6.3767394400687308e-02  -4.0509042312266701e-02  8.4806647031429830e-02  8.8565110038588676e-02  -1.3498735863956412e-03  1.2874026257103183e-01  3.9231503129793670e-02  1.0581992351610310e-01  2.3823378856605915e-01  1.3262868070513118e-02  -1.4688708982723206e-01  2.3382683370564894e-01  2.2541109177583132e-02  3.2871544361275484e-02  7.9987915535734991e-02  1.2694605170534523e-01  -6.7722107523914749e-02  -1.4765508480440617e-01  9.0183993278483005e-03  1.7261045528444577e-01  -1.9135025440994488e-01  2.6062162633163882e-01  5.9027024654934569e-02  -5.9791002227615936e-02  2.2285720796457978e-01  -1.5159346399771292e-01  6.4890704814222410e-03  -1.0279300521297433e-01  -2.4462180896506276e-02  -3.2277139050129945e-02  -2.7195322864775572e-02  2.4264163025700397e-01  -3.3187619674492899e-03  -2.3966574102929735e-02  4.5663633083769493e-02  2.4161737427156760e-03  3.1129096315744387e-02  1.2091080327381261e-01  1.8169605618847839e-01  1.0983852350323565e-01  4.0169400130613320e-02  -1.3407390486613679e-01  8.0119277655327975e-02  8.0819203644495255e-02  2.5423551811043810e-01  -7.7671892484515448e-02  -6.3384967850521071e-02  2.1999134744689983e-02  1.4210268243681989e-01  -7.8902751313557062e-03  -7.5105947767629147e-02  1.0782997662876352e-01  1.0968428762999793e-01  7.3812036493999506e-02  2.2636028510434600e-01  -1.4585432567114731e-01  -8.2669193993497148e-02  -7.4392625378341029e-02  2.2980039405916766e-01  1.2075521019463160e-01  -1.1908042344449973e-01  3.4492257858905924e-02  9.4779852602112608e-02  3.0827478908519557e-02  1.8468898400424372e-01  5.9523041413378816e-02  3.9715389728600593e-02  -1.0539649502661791e-01  1.0659035593455195e-01  -3.1270842871391799e-02  6.1058063123086662e-02  -1.1803540051190013e-01  -2.8499944708052810e-01  1.8028410590496483e-01  1.2192955157059718e-01  2.6161114687092768e-01  -1.6169140207883756e-01  3.2244532216255437e-02  1.0852914893606726e-01  9.3827273137319936e-02  -8.2318403239992954e-02  8.5052235696496999e-03  9.0128310223272445e-02  1.8837071963133706e-01  -9.3854285246625133e-02  1.7593827081168756e-01  1.7022637283034919e-01  -1.2461771712552436e-01  -1.6741261139235041e-02  -8.6553327222881157e-02  2.1121544921432586e-02  7.7825551520643663e-03  5.8268998235555577e-02  -4.7832495727744513e-02  4.8257968805777859e-02  3.7795619142370174e-02  -2.1554239210480351e-02  2.0340881035244363e-01  -1.7649706671097525e-03  -6.0889613156881385e-02  1.2715560448640487e-01  5.8002345818801591e-03  1.3209276614692320e-01  -5.1973213195382353e-02  1.6660882955667214e-01  -1.2763059149656602e-02  1.3046647727664543e-01  -8.7158389524598159e-02  4.0673516640598650e-02  1.6265437872644137e-01  -2.9109408819469166e-02  1.0700741976591337e-02  1.4986547895215455e-02  -1.5237219139194076e-02  -4.1580328554300619e-02  1.1007752558653812e-03  -8.4508519781568134e-02  2.5187990816252875e-01  2.5959898028598494e-01  2.0269043387495519e-01  -1.1173085913130958e-01  -8.2110313730642120e-03  -7.2446323177947941e-02  3.6138556125235949e-02  1.6013203955563413e-02  -5.2849367245233057e-02  1.8302732125539189e-01  -3.8458246747628599e-02  -6.8597669727027660e-02  2.3940976055589175e-01  2.3123659242762974e-02  5.6548513916955569e-02  7.7451564745517537e-02  5.9598331470554738e-02  2.0511492631690165e-01  7.2375774542370624e-02  -5.8705095596866576e-02  1.0023494239650863e-01  1.6228191932738972e-01  5.7082887893103666e-02  -9.7660958687137631e-02  2.1395663373728482e-01  8.5230338926216453e-02  1.2046767297346175e-01  1.8797834925927118e-01  -1.8721677910800055e-01  -1.5124849121735023e-01  1.5330353383643461e-01  -1.0094441384570828e-01  -9.6012139787216483e-02  -1.5456190895962443e-01  -5.0722408304791355e-03  3.5589098486145956e-02  8.5190016892742693e-02  -5.0036059590543011e-02  5.1070828513954192e-03  -4.5901157868359433e-03  -7.0864608025378598e-02  -7.6152086524668566e-02  -8.6889149949012839e-02  -2.0337554103811908e-02  5.0772190330021783e-02  7.6015097021727623e-02  -8.5150418944612727e-02  -1.4525449736818286e-01  1.1705802424734103e-01  -2.9729014584811822e-02  6.3539628259006789e-02  -8.3342715671873346e-02  -3.8068557823852149e-02  -2.8294879234404564e-03  4.6156984310266637e-02  -1.7830120012129969e-02  -4.4791514181633928e-02  2.1969045491088882e-01  1.7277001296541711e-01  -1.5415600709085600e-01  -1.2835903141519331e-01  8.1373922577651345e-02  1.0417326164488842e-01  3.9875329866389531e-02  2.1138946333018588e-01  -3.3983782374209341e-02  2.9107875536036731e-02  1.2919320461365111e-01  1.6393189587250809e-01  8.6391428408528717e-02  2.3986099621958415e-01  -4.8409436600841273e-02  2.2419074608832280e-02  2.1321045555782663e-02  2.0199839525767978e-03  2.5544811971457421e-01  5.7707592291172762e-02  1.9926695531761240e-01  -2.5135436504044671e-02  -1.1741956507116681e-01  7.5625863169390697e-02  9.1939052682972935e-02  -2.0446236108329779e-02  1.3631086237084644e-01  8.2337602698822260e-02  1.6969026179218055e-01  -5.0406401138358460e-02  -4.3512547610913679e-02  2.2837493331808909e-01  6.2718597749986074e-02  -9.9226927703892548e-02  -4.9814371225375603e-02  6.2339871308971756e-02  -1.2112731985459252e-01  1.0159314577342468e-01  2.6228986879957855e-01  1.5675375363487981e-01  5.0556240322518139e-02  1.4293153435643433e-01  6.4695208188895376e-02  9.3023329625877491e-02  5.0057444684834022e-02  2.5671334374461206e-02  -2.0871310581506562e-02  1.0697213194209110e-01  5.5726572493397054e-02  5.1053948567082681e-02  -8.7964157873917943e-03  -9.1411943609124066e-02  -2.1810851671543462e-02  8.3383855324245568e-02  2.3037689092632405e-01  7.5353024187095483e-02  -1.1577232675690566e-02  -1.1805680855893882e-01  1.5915793035332496e-01  1.7397022297055997e-01  2.6249940967104279e-01  -1.1240970648852355e-01  1.1908236534860690e-01  1.6705890087118390e-02  1.0911408953449216e-01  -1.1034996002391981e-02  2.6328616872915041e-02  -6.1603300353492714e-02  -2.2227503429123374e-01  1.4011709933000949e-03  1.4378317947551311e-01  1.7938823909138138e-01  -1.3246663561962585e-01  1.0381946797380263e-01  -1.2153216525398336e-02  6.1449483564387536e-02  2.6757478484738400e-02  -1.8020232443873452e-01  4.8892023163606593e-02  1.1146794302649649e-01  -5.4121187127807419e-02  3.9437481656740070e-03  2.5282142962428217e-01  1.2643037954496386e-01  1.6883671565072841e-01  -1.4013183292372419e-01  1.1401879986573041e-01  -6.8102060460687272e-02  2.4573987471173517e-01  5.1232247312074639e-02  7.1264955415529949e-02  -7.6325402628891495e-02  -3.9598046771191574e-02  -4.8401434897817446e-02  1.7001377317129857e-01  -3.2225207174937731e-01  2.0346194498939013e-01  -1.1750050419341651e-01  7.2823529212074550e-02  5.9751420140098911e-02  1.8114314509110288e-02  1.4162295327931898e-01  3.8368261229514596e-02  -2.0292513808164013e-02  4.2146763798002571e-02  2.0015120943159054e-01  8.5717044049747587e-02  -3.3798850055050608e-02  7.0093026280957553e-03  1.2483560688873471e-01  1.1015703265142575e-01  -5.9955553278869013e-02  -5.4958267902486521e-02  5.5356300382709653e-02  2.3752963066623726e-02  -6.5698179063079704e-02  6.9493405706098313e-02  2.2046242496249988e-01  4.3629465905079455e-02  -4.7627811546881664e-02  -1.1313711258424305e-01  1.6132405934356331e-02  1.3816153355721766e-01  -6.8557123965301198e-02  2.2967370773037868e-01  2.3231620980643694e-01  5.5945118656972589e-02  7.5932949344377720e-02  5.0837778442290801e-03  -2.3325523150173975e-02  1.9346022941605745e-01  6.5531189701005174e-04  2.2562577365322747e-01  -1.7913941812107223e-01  -8.2576356587721084e-02  -6.4245990087855240e-02  3.9026790470199121e-02  1.0617385365562453e-01  6.5873833468297963e-02  1.4543433967777791e-01  7.4039248299665062e-03  -9.7047657080780905e-02  1.7043414584256733e-01  1.1802796591877385e-02  9.0605411285417978e-02  2.8045536659931602e-01  -1.3643634600640489e-01  7.7610477029732131e-02  -1.2805267812333512e-01  1.0491581923054004e-01  5.1064458695007555e-03  3.6119074041775008e-02  5.1608224593802376e-02  -1.0173993491766697e-01  -3.2486067990178044e-02  -6.9761677639705921e-02  8.8497639874489789e-02  -2.6390800911342598e-02  -1.2967189706066665e-01  1.1534801795448511e-01  2.3918851705011257e-01  -1.0618606819317743e-01  -4.1826637492084810e-02  2.2161357617107087e-02  3.4449685126634849e-02  -2.0216928559639602e-01  2.4478371787643130e-01  -1.1770459181741771e-01  8.3786938747091352e-02  6.8763316817813100e-02  1.4234345276350690e-02  7.4613783648989532e-02  1.8345700122975408e-03  2.5387330618474691e-01  1.2642242608667609e-01  1.0691681579802220e-01  -6.9920091756411923e-02  -7.6227396938992721e-03  -1.9169455193069597e-02  1.4406304084984706e-01  7.0571634006934766e-02  1.5532800588809345e-01  1.0513712170792523e-01  -1.8238036253007192e-01  -2.5542238372213252e-02  2.7556767201823953e-02  -3.1323235016813607e-03  1.3038474030279851e-01  1.6593491274897393e-01  -9.8490154296605611e-02  -4.3163477779917324e-02  9.7879966489451218e-03  -4.4666440913463432e-02  5.3509223057044697e-02  1.9799685311044929e-01  2.2687436129126606e-01  -1.4470023029681614e-01  3.8308866895772210e-02  -1.1200798754493260e-01  1.8253019230744483e-01  1.2262275970315820e-01  -6.5765812369626614e-02  -6.1926974150623114e-02  1.1931272561401036e-01  4.8749853871149613e-02  2.8141674664593080e-03  -3.6699520673888771e-02  7.5125525028058138e-02  -5.5855475167424250e-02  1.8942412601957639e-01  -4.8698932413792716e-02  1.5905997376339773e-01  -1.1360466083706530e-01  4.8278971288133769e-03  -5.7048106107030407e-02  -2.7451539873524722e-02  -2.4860588533537120e-02  1.5982414421659860e-01  1.2053808830999051e-01  4.2348182759141609e-03  1.6906078446464298e-01  1.0424614700412517e-01  -3.5919332171887385e-02  2.1390335164925653e-01  1.0565504576189629e-01  -8.6242448865985796e-02  -1.0550854491949797e-01  -3.2264450951308187e-03  -2.0648840335695095e-02  6.7412994424513387e-02  -3.9730045185970050e-02  7.1254602411722684e-02  1.2639022622927301e-01  3.0533443807667645e-02  -6.6551993692239492e-02  1.9155145352818295e-01  7.9934074924686901e-03  1.7061817752135850e-02  -1.0195751671419010e-02  3.7230892412086672e-02  7.4305796287624182e-02  -6.1708224046281282e-03  -1.452650091198308