<?xml version="1.0"?>
<VTKFile type="UnstructuredGrid"  version="0.1"  >
<UnstructuredGrid>
<Piece  NumberOfPoints="4826" NumberOfCells="9274">
<Points>
<DataArray  type="Float64"  NumberOfComponents="3"  format="ascii">0.004357787137616029 0.04980973490456689 0  2.448294430073374e-13 0.05 0  -0.004357787137128233 0.04980973490460956 0  -0.004357787137605706 -0.04980973490456778 0  -2.344882876518267e-13 -0.05 0  0.004357787137138513 -0.04980973490460866 0  -0.2 -0.2 0  0.55 -0.2 0  2 -0.2 0  2 0.21 0  0.55 0.21 0  -0.2 0.21 0  0.002180969368511386 0.0499524110790822 0  -0.002180969368010819 0.04995241107910407 0  -0.002180969368502513 -0.04995241107908259 0  0.002180969368021486 -0.0499524110791036 0  -0.006814597157868607 0.04953343583455493 0  -0.009254746151924908 0.04913603233537922 0  -0.01167226819248128 0.04861849601995923 0  -0.01406125267347753 0.04798209221420657 0  -0.01641585876037609 0.04722837686348521 0  -0.01873032967049142 0.04635919272846228 0  -0.02099900674774951 0.04537666487973717 0  -0.0232163432975249 0.04428319550226104 0  -0.0253769181477669 0.04308145802223435 0  -0.02747544890327456 0.04177439057082161 0  -0.02950680486062692 0.04036518880070902 0  -0.03146601955223609 0.03885729807305569 0  -0.0333483028888871 0.03725440503391573 0  -0.03514905287103829 0.03556042860074884 0  -0.03686386684027007 0.03377951038104073 0  -0.0384885522433417 0.0319160045464898 0  -0.04001913688258778 0.02997446718746979 0  -0.04145187862754741 0.0279596451738408 0  -0.04278327456411638 0.0258764645493049 0  -0.04401006955882648 0.02373001848771415 0  -0.04512926421732728 0.02152555484076227 0  -0.04613812221762188 0.01926846330748221 0  -0.04703417700009761 0.01696426225697686 0  -0.04781523779803292 0.0146185852365256 0  -0.04847939499380464 0.01223716719811699 0  -0.04902502478771633 0.009825830477053876 0  -0.04945079316803359 0.007390470556897103 0  -0.04975565917250895 0.004937041655599784 0  -0.04993887743343513 0.002471542168028815 0  -0.05000000000000002 4.319617580295088e-13 0  -0.04993887743347691 -0.002471542167184487 0  -0.04975565917259078 -0.004937041654775128 0  -0.0494507931681559 -0.007390470556078771 0  -0.04902502478787634 -0.00982583047625548 0  -0.048479394994003 -0.01223716719733118 0  -0.04781523779827011 -0.01461858523574979 0  -0.04703417700037211 -0.01696426225621582 0  -0.04613812221792003 -0.01926846330676828 0  -0.04512926421765873 -0.0215255548400674 0  -0.0440100695591652 -0.02373001848708596 0  -0.04278327456447995 -0.0258764645487038 0  -0.04145187862791943 -0.02795964517328926 0  -0.04001913688296869 -0.02997446718696123 0  -0.03848855224374843 -0.03191600454599933 0  -0.03686386684070041 -0.03377951038057109 0  -0.03514905287149575 -0.03556042860029668 0  -0.03334830288936536 -0.03725440503348761 0  -0.03146601955271191 -0.03885729807267038 0  -0.02950680486109357 -0.0403651888003679 0  -0.02747544890375341 -0.04177439057050667 0  -0.02537691814821718 -0.0430814580219691 0  -0.02321634329799415 -0.04428319550201502 0  -0.02099900674823039 -0.04537666487951462 0  -0.01873032967097447 -0.04635919272826711 0  -0.0164158587608675 -0.0472283768633144 0  -0.01406125267397827 -0.04798209221405982 0  -0.01167226819300015 -0.04861849601983465 0  -0.00925474615244812 -0.04913603233528067 0  -0.006814597158347743 -0.04953343583448901 0  0.006814597157865879 -0.04953343583455529 0  0.009254746151927097 -0.0491360323353788 0  0.01167226819248615 -0.04861849601995805 0  0.01406125267347329 -0.04798209221420779 0  0.01641585876037412 -0.04722837686348589 0  0.01873032967049753 -0.04635919272845981 0  0.02099900674775168 -0.04537666487973616 0  0.02321634329751479 -0.04428319550226633 0  0.02537691814775486 -0.04308145802224143 0  0.02747544890326525 -0.04177439057082774 0  0.02950680486061762 -0.04036518880071581 0  0.03146601955222702 -0.03885729807306303 0  0.0333483028888813 -0.03725440503392092 0  0.03514905287103634 -0.03556042860075076 0  0.03686386684026893 -0.03377951038104196 0  0.03848855224333972 -0.03191600454649218 0  0.04001913688258468 -0.02997446718747393 0  0.04145187862754592 -0.02795964517384301 0  0.04278327456411439 -0.02587646454930818 0  0.04401006955882308 -0.02373001848772046 0  0.04512926421732501 -0.02152555484076704 0  0.04613812221761816 -0.01926846330749109 0  0.04703417700009521 -0.01696426225698355 0  0.04781523779803072 -0.01461858523653281 0  0.04847939499380377 -0.01223716719812044 0  0.04902502478771547 -0.009825830477058137 0  0.04945079316803235 -0.007390470556905473 0  0.04975565917250727 -0.004937041655616693 0  0.0499388774334346 -0.002471542168039619 0  0.05 -4.403257272689309e-13 0  0.04993887743347755 0.002471542167171875 0  0.04975565917259197 0.004937041654763091 0  0.04945079316815711 0.007390470556070629 0  0.04902502478787914 0.009825830476241509 0  0.04847939499400326 0.01223716719733013 0  0.04781523779826526 0.01461858523576567 0  0.0470341770003617 0.01696426225624468 0  0.04613812221791593 0.01926846330677807 0  0.04512926421764892 0.02152555484008794 0  0.04401006955917259 0.02373001848707224 0  0.04278327456448917 0.02587646454868855 0  0.04145187862794129 0.02795964517325684 0  0.04001913688300011 0.02997446718691929 0  0.03848855224377164 0.03191600454597132 0  0.03686386684071396 0.03377951038055631 0  0.03514905287149344 0.03556042860029895 0  0.03334830288935025 0.03725440503350112 0  0.03146601955270811 0.03885729807267346 0  0.0295068048611069 0.04036518880035816 0  0.02747544890376348 0.04177439057050004 0  0.02537691814825449 0.04308145802194713 0  0.02321634329801946 0.04428319550200175 0  0.02099900674825754 0.04537666487950205 0  0.01873032967100249 0.04635919272825579 0  0.0164158587608822 0.04722837686330929 0  0.01406125267398022 0.04798209221405924 0  0.01167226819298624 0.04861849601983799 0  0.009254746152419701 0.04913603233528602 0  0.006814597158349477 0.04953343583448876 0  -0.187519667561546 -0.2 0  -0.1748316574821168 -0.2 0  -0.1619325192212862 -0.2 0  -0.148818726846035 -0.2 0  -0.1354867192353635 -0.2 0  -0.1219328603917423 -0.2 0  -0.1081534592978099 -0.2 0  -0.09414476589796635 -0.2 0  -0.07990295884356099 -0.2 0  -0.06542416303692469 -0.2 0  -0.05070442887227664 -0.2 0  -0.03573975841838681 -0.2 0  -0.02052606515274366 -0.2 0  -0.005059208927244263 -0.2 0  0.01066502121897589 -0.2 0  0.0266509074223695 -0.2 0  0.04290280916834216 -0.2 0  0.05942514657702952 -0.2 0  0.0762224259839136 -0.2 0  0.09329921648059353 -0.2 0  0.110660175036538 -0.2 0  0.1283100227830172 -0.2 0  0.1462535753141169 -0.2 0  0.1644957199166657 -0.2 0  0.1830414159977267 -0.2 0  0.2018957233573105 -0.2 0  0.2210637763821503 -0.2 0  0.2405507887204602 -0.2 0  0.260362079066015 -0.2 0  0.2805030358280229 -0.2 0  0.3009791451426284 -0.2 0  0.3217959904068706 -0.2 0  0.3429592343744705 -0.2 0  0.3644746437000989 -0.2 0  0.3863480795092348 -0.2 0  0.4085854991020529 -0.2 0  0.4311929577241948 -0.2 0  0.4541766164908302 -0.2 0  0.4775427321916551 -0.2 0  0.5012976684604897 -0.2 0  0.5254479006641548 -0.2 0  0.5749999999999358 -0.2 0  0.5999999999998969 -0.2 0  0.6249999999998155 -0.2 0  0.6499999999998081 -0.2 0  0.6749999999997656 -0.2 0  0.6999999999997664 -0.2 0  0.7249999999997357 -0.2 0  0.7499999999996745 -0.2 0  0.7749999999995796 -0.2 0  0.7999999999995281 -0.2 0  0.8249999999994608 -0.2 0  0.8499999999994138 -0.2 0  0.8749999999993301 -0.2 0  0.8999999999992546 -0.2 0  0.9249999999991836 -0.2 0  0.9499999999990955 -0.2 0  0.9749999999990373 -0.2 0  0.9999999999989423 -0.2 0  1.024999999998847 -0.2 0  1.049999999998752 -0.2 0  1.074999999998672 -0.2 0  1.099999999998649 -0.2 0  1.124999999998554 -0.2 0  1.149999999998545 -0.2 0  1.174999999998451 -0.2 0  1.199999999998416 -0.2 0  1.224999999998348 -0.2 0  1.249999999998288 -0.2 0  1.274999999998288 -0.2 0  1.299999999998246 -0.2 0  1.324999999998369 -0.2 0  1.349999999998394 -0.2 0  1.37499999999845 -0.2 0  1.399999999998551 -0.2 0  1.424999999998531 -0.2 0  1.449999999998684 -0.2 0  1.474999999998642 -0.2 0  1.499999999998804 -0.2 0  1.524999999998773 -0.2 0  1.549999999998885 -0.2 0  1.574999999999013 -0.2 0  1.599999999999079 -0.2 0  1.624999999999119 -0.2 0  1.649999999999211 -0.2 0  1.674999999999224 -0.2 0  1.699999999999321 -0.2 0  1.724999999999342 -0.2 0  1.749999999999427 -0.2 0  1.774999999999474 -0.2 0  1.799999999999533 -0.2 0  1.824999999999605 -0.2 0  1.849999999999639 -0.2 0  1.874999999999735 -0.2 0  1.899999999999745 -0.2 0  1.924999999999841 -0.2 0  1.949999999999869 -0.2 0  1.974999999999947 -0.2 0  2 -0.1758823529412649 0  2 -0.1517647058824698 0  2 -0.12764705882371 0  2 -0.103529411764951 0  2 -0.07941176470620959 0  2 -0.05529411764745706 0  2 -0.03117647058865336 0  2 -0.007058823529918185 0  2 0.01705882352889865 0  2 0.04117647058779714 0  2 0.06529411764668486 0  2 0.08941176470558332 0  2 0.1135294117644398 0  2 0.137647058823337 0  2 0.1617647058822356 0  2 0.185882352941134 0  1.975000000000015 0.21 0  1.950000000000055 0.21 0  1.925000000000061 0.21 0  1.90000000000011 0.21 0  1.875000000000116 0.21 0  1.850000000000166 0.21 0  1.825000000000172 0.21 0  1.800000000000206 0.21 0  1.775000000000227 0.21 0  1.750000000000322 0.21 0  1.725000000000369 0.21 0  1.700000000000375 0.21 0  1.675000000000454 0.21 0  1.650000000000517 0.21 0  1.62500000000057 0.21 0  1.600000000000658 0.21 0  1.575000000000687 0.21 0  1.550000000000789 0.21 0  1.525000000000806 0.21 0  1.500000000000905 0.21 0  1.475000000001007 0.21 0  1.450000000001109 0.21 0  1.42500000000121 0.21 0  1.400000000001312 0.21 0  1.375000000001406 0.21 0  1.350000000001428 0.21 0  1.32500000000153 0.21 0  1.300000000001554 0.21 0  1.275000000001647 0.21 0  1.250000000001522 0.21 0  1.225000000001572 0.21 0  1.200000000001437 0.21 0  1.175000000001446 0.21 0  1.15000000000137 0.21 0  1.125000000001303 0.21 0  1.100000000001302 0.21 0  1.075000000001145 0.21 0  1.050000000001136 0.21 0  1.025000000000966 0.21 0  1.000000000000931 0.21 0  0.9750000000008732 0.21 0  0.9500000000008135 0.21
[...]
<PointData  Scalars="pressure"> 
<DataArray  type="Float64"  Name="pressure"  format="ascii">-8.0316843838818353e-01  -8.7420935884479789e-01  -9.1014738513191895e-01  -9.6819878076726129e-01  -8.9949731157475710e-01  -8.3862590169336526e-01  4.7338576681192379e-01  1.8162902814570037e-01  0.0000000000000000e+00  0.0000000000000000e+00  1.3928624743131576e-01  4.6965161080963114e-01  -8.3793388151553649e-01  -8.9608307474016835e-01  -9.3461997729810697e-01  -8.6780640060271963e-01  -9.2489899881573878e-01  -9.3322883101936460e-01  -9.2800903195262441e-01  -9.1129081501551057e-01  -8.8069298545412644e-01  -8.3351562430279735e-01  -7.7229244542495568e-01  -6.9732753765761279e-01  -6.0456656194355340e-01  -4.9486041297892036e-01  -3.7126127128390790e-01  -2.3855460348862431e-01  -9.3976909729985500e-02  6.5806052086905417e-02  2.2781746423509616e-01  3.9979317773479450e-01  5.7188820947244101e-01  7.4170740355369524e-01  9.1618258103136918e-01  1.0775803833982787e+00  1.2391558081728771e+00  1.3863838149331971e+00  1.5213330704600745e+00  1.6440542805782503e+00  1.7478882243721992e+00  1.8335024154332458e+00  1.9004453204985008e+00  1.9480225552712129e+00  1.9699243574066094e+00  1.9718984209419381e+00  1.9519646116863125e+00  1.9089852040311495e+00  1.8458800977493630e+00  1.7612375721366575e+00  1.6593250333589011e+00  1.5419924515461341e+00  1.4054390669905983e+00  1.2601529207606859e+00  1.1007105490968210e+00  9.3265880679765989e-01  7.6052005912858911e-01  5.8359840527235785e-01  4.0973301200927059e-01  2.3671637006103341e-01  6.2624884053165672e-02  -9.2416676724057650e-02  -2.5103082815971134e-01  -3.9106388552605281e-01  -5.2028343415211775e-01  -6.3724648549723084e-01  -7.4009784123949185e-01  -8.2331816878697650e-01  -8.9669138581026098e-01  -9.4707360269691954e-01  -9.8814935954649796e-01  -1.0091331593365491e+00  -1.0181916946190763e+00  -1.0124421876830847e+00  -9.9681128600943747e-01  -7.9594951038934736e-01  -7.5403828507730453e-01  -7.1275532313547008e-01  -6.7267752838423478e-01  -6.3627677958949003e-01  -6.0288611796637648e-01  -5.7303575960169373e-01  -5.4634705564911112e-01  -5.2282089900695627e-01  -5.0231913053091670e-01  -4.8426139528560219e-01  -4.6924121043071204e-01  -4.5699142119463393e-01  -4.4677329659978260e-01  -4.3895904460093416e-01  -4.3292695911379586e-01  -4.2892106045648531e-01  -4.2579730768240276e-01  -4.2374487419510720e-01  -4.2194404072135572e-01  -4.2031273339318370e-01  -4.1867035505966732e-01  -4.1663531163715695e-01  -4.1420204307999592e-01  -4.1175006974672873e-01  -4.0868426360823040e-01  -4.0590977222463315e-01  -4.0309126914021803e-01  -4.0075817363281402e-01  -3.9914042680941331e-01  -3.9837234955025347e-01  -3.9862246211329938e-01  -4.0034250924238829e-01  -4.0291572952616006e-01  -4.0682444612444957e-01  -4.1165271072956955e-01  -4.1732126394611790e-01  -4.2345625480282989e-01  -4.3016040829857438e-01  -4.3694061781719934e-01  -4.4369740621301351e-01  -4.5053454373542451e-01  -4.5729484009317745e-01  -4.6403424065161986e-01  -4.7097737114796384e-01  -4.7840657685664562e-01  -4.8651122151698417e-01  -4.9592536402475690e-01  -5.0669269597182343e-01  -5.1970814679647526e-01  -5.3482126112399841e-01  -5.5285681681586374e-01  -5.7372228160946692e-01  -5.9777849156425755e-01  -6.2504634022059091e-01  -6.5545047804221523e-01  -6.8854564659908779e-01  -7.2442562898937746e-01  -7.6145665424449283e-01  4.7273941239576545e-01  4.7192358371606469e-01  4.7019972237359492e-01  4.6768689956387177e-01  4.6363171572934131e-01  4.5764396837145294e-01  4.4888037193868546e-01  4.3688953649735879e-01  4.2033689350657277e-01  3.9904897892498664e-01  3.7222571266481186e-01  3.3895393723336736e-01  3.0137776185667353e-01  2.5820811734613053e-01  2.1274970816976585e-01  1.6696505662704947e-01  1.2189635785433041e-01  7.8434879174318045e-02  4.1670367134435359e-02  7.7481211867927915e-03  -1.8204833926802985e-02  -3.9483141377976178e-02  -5.3845617896107902e-02  -6.5318083907107485e-02  -6.9967012171545814e-02  -7.1720002861215187e-02  -6.8570912897399985e-02  -6.0618206373452492e-02  -4.5899468837152249e-02  -2.0911305272732959e-02  1.5815732898069562e-02  6.4212226729996935e-02  1.1945124040308168e-01  1.7873872501136609e-01  2.3348471815256144e-01  2.8099584104613828e-01  3.0968442948688230e-01  3.2147570037834161e-01  3.0458205503779096e-01  2.7461650168370927e-01  2.2817778285492879e-01  1.4311981917749381e-01  1.1911246111871056e-01  1.0159920428780481e-01  8.4351651739458397e-02  6.7191145042530057e-02  5.4985436279858718e-02  5.3205169774473406e-02  7.1823810405129210e-02  1.0669551557831013e-01  1.5341053805426746e-01  1.9740274945973915e-01  2.2761640152291199e-01  2.3997963678428647e-01  2.3889517241151695e-01  2.2316687204278809e-01  1.9971517215950668e-01  1.6932704631061909e-01  1.3455875575684201e-01  9.2480173886670611e-02  4.7772599844676585e-02  6.8373764942671429e-03  -2.4898233436055826e-02  -2.8088165249900713e-02  -4.5734680195419399e-03  4.2850992834658444e-02  1.0252309681818615e-01  1.5398463581692556e-01  1.9185357681702142e-01  2.0880424049419988e-01  2.0992092453577826e-01  1.9182265282076155e-01  1.5771897561564166e-01  1.1283512255082856e-01  6.1091467063836731e-02  1.1094906640865381e-02  -2.4836915660556760e-02  -4.9198561532032212e-02  -5.4718542185746094e-02  -3.9317889343841200e-02  -1.3684281999868972e-02  1.9699937206149865e-02  5.4122230777983373e-02  8.2986813713572596e-02  1.0467272059259503e-01  1.1413610238073069e-01  1.1331080523514672e-01  9.9691035559913307e-02  7.7323831208657962e-02  4.6626040930911258e-02  1.3051119132885551e-02  -1.7635488784933026e-02  -4.4194179962787718e-02  -6.0294821017997109e-02  -6.4498594216270896e-02  -5.6887867747100813e-02  -4.0014300652746013e-02  -2.0140641025962625e-02  0.0000000000000000e+00  0.0000000000000000e+00  0.0000000000000000e+00  0.0000000000000000e+00  0.0000000000000000e+00  0.0000000000000000e+00  0.0000000000000000e+00  0.0000000000000000e+00  0.0000000000000000e+00  0.0000000000000000e+00  0.0000000000000000e+00  0.0000000000000000e+00  0.0000000000000000e+00  0.0000000000000000e+00  0.0000000000000000e+00  0.0000000000000000e+00  2.3863646859129433e-02  4.5817167622667111e-02  6.2865328164242867e-02  7.3424583788445325e-02  7.3084257748654555e-02  6.3888633930358429e-02  4.8016595709616992e-02  2.5903391470609660e-02  2.3725031470852986e-03  -1.8054419432403667e-02  -3.6990825240420556e-02  -4.6681656772321688e-02  -4.4846938108352406e-02  -3.0552560567206989e-02  -3.5085635460304575e-03  3.2320926881653389e-02  7.1712645781981138e-02  1.0798828259863841e-01  1.3600389989669653e-01  1.5452738080630182e-01  1.5883358503644185e-01  1.4905053147396291e-01  1.2598559055684272e-01  8.8433651530014382e-02  4.5114887094219437e-02  2.1406189645972471e-03  -3.4715718616279291e-02  -4.4216432656793564e-02  -3.0734272166991556e-02  9.2889167227841445e-03  5.8075532840194434e-02  1.1096250382010689e-01  1.6017202974871914e-01  1.9840881594303067e-01  2.2741066508740446e-01  2.4023129448790748e-01  2.3430674426088971e-01  2.0820838358617891e-01  1.5881291068141670e-01  1.0113393455185415e-01  5.1495911584063497e-02  1.9360797321580168e-02  1.2952179272408125e-02  2.7560999556664037e-02  5.6568229277964913e-02  8.8738020668456014e-02  1.2162739825960793e-01  1.5004808522000013e-01  1.7433420659074036e-01  1.9688716237342943e-01  2.1512830638970881e-01  2.3003288443783701e-01  2.3901278098708351e-01  2.3853166318674740e-01  2.2719354018776183e-01  2.0414829453439470e-01  1.7551829204381780e-01  9.9178509614400390e-02  6.1909187172065686e-02  2.5605211580695175e-02  5.0993189092139550e-04  -1.1768152183380497e-02  -4.4688436742260544e-03  1.3319782877193556e-02  4.4270815531610115e-02  7.7039552969658684e-02  1.0362764086920209e-01  1.2042915330793554e-01  1.2953287827511531e-01  1.2980517359513541e-01  1.2385274182822568e-01  1.1377074906958132e-01  1.0150104680471581e-01  8.9493524834357061e-02  7.9215542837612188e-02  7.3627906906849283e-02  7.3915537962188596e-02  7.9033141577053781e-02  9.1947463448705760e-02  1.1147761683324864e-01  1.3620532436961691e-01  1.6680220262938594e-01  2.0069850815547738e-01  2.3630135150417170e-01  2.7235684196328325e-01  3.0688587918557425e-01  3.3889102315482811e-01  3.6678332594846208e-01  3.9138870964622841e-01  4.1137973521608040e-01  4.2735393228627178e-01  4.4036001782252593e-01  4.4984899800517875e-01  4.5721434559350665e-01  4.6223687955515130e-01  4.6568174474145058e-01  4.6778942314593297e-01  4.6896288864726071e-01  4.6952119884940541e-01  4.7056657313590966e-01  4.7418879727303120e-01  4.8149582162389498e-01  4.9331936580711638e-01  5.1043454618600892e-01  5.3292906249291727e-01  5.6063990034811673e-01  5.9299379090937276e-01  6.2907873582029694e-01  6.6677364894362678e-01  7.0454674204663725e-01  7.3951779844197085e-01  7.6887446507294344e-01  7.9107383521470132e-01  8.0450096638258595e-01  8.0511443634605051e-01  7.9597994709825659e-01  7.7647148751918027e-01  7.4820958615611322e-01  7.1466158517676859e-01  6.7675748040368511e-01  6.3845238309069741e-01  6.0117431239710006e-01  5.6757196891088979e-01  5.3849418820468398e-01  5.1498056159951300e-01  4.9721189374873903e-01  4.8489389552725015e-01  4.7775353446815233e-01  4.7402130504643947e-01  4.7325010462463113e-01  1.8016260421727603e-01  1.7483666896429795e-01  1.6917104527805668e-01  1.6475626436149854e-01  1.3393021268159488e-01  4.5938911696377177e-02  -9.7699665018844362e-02  -2.1332697538004278e-01  -2.5304598392661121e-01  -1.8322853091946076e-01  -7.8718474574972025e-02  2.8452698587373010e-02  8.9573499438049459e-02  1.1443822406334776e-01  1.3103094512638980e-01  1.3643884585660110e-01  -1.1508198830359143e-01  -2.6077045845692128e-02  -3.6206054204059729e-02  -2.7131093917682807e-02  6.4805594490022045e-02  -6.2032506628918176e-02  -5.0833083995753391e-02  -6.3419245074203504e-02  1.1213002798467053e-01  5.1684929373953734e-02  -5.3218676495090024e-02  1.3512376256950318e-01  6.0505063298326556e-02  9.3261251414920379e-02  2.4619674703017827e-01  3.5420456263105332e-02  -1.3570587921802651e-01  2.0922669083356601e-01  4.9398141018625580e-02  1.7223397742354705e-03  1.0240847442081823e-01  1.3964368083146478e-01  -8.4653790496735631e-02  -1.3397499691834086e-01  3.4701971320175481e-02  1.8457524536429007e-01  -2.0070994571504314e-01  2.7013760947288734e-01  5.8542799135853925e-02  -6.3406185890158825e-02  2.3703354963350684e-01  -1.5269873623220098e-01  -2.3934736636806866e-02  -8.9431842849474710e-02  -6.4065160029337165e-04  -3.3038691125295658e-02  -2.7343103581381110e-02  2.4120677413183217e-01  -5.9916928947179888e-03  -2.8906844682436782e-02  2.5529921909866360e-02  4.7791082637589910e-03  3.4265800366093550e-02  1.0276183364417156e-01  1.7020669551165607e-01  1.1033421329098607e-01  2.0408437668960177e-02  -1.1778737900952413e-01  8.8511213561233634e-02  7.9797220707172628e-02  2.3889990441792336e-01  -8.0272583538362127e-02  -7.9586161740177255e-02  5.3241294602828323e-02  1.5856871611467499e-01  2.0895844390818673e-02  -7.5120107453324148e-02  1.2013896374645468e-01  1.2546262755476395e-01  3.2593524754290039e-02  1.8921159756622996e-01  -1.5612202112830895e-01  -5.6797653795591957e-02  -5.5004088705293108e-02  2.3991966387070360e-01  1.1125075376563916e-01  -1.4681446633932707e-01  4.9831867625200803e-02  1.0546054385742870e-01  1.4751044702190670e-02  1.4491075457791100e-01  6.1362313764626530e-02  4.1775108428320731e-02  -1.1814427415610691e-01  9.3900420687832456e-02  -5.0295279080630742e-03  7.3377606036169413e-02  -1.0132221387833139e-01  -2.3148656863480963e-01  2.0052054728040680e-01  1.3487389083019932e-01  2.5962284213089942e-01  -1.3236692293857785e-01  3.8702922910505873e-02  1.1744551868590399e-01  8.0109887746115105e-02  -5.6565594540824500e-02  -1.9502377478451568e-02  1.0843753069547418e-01  1.5488759179890499e-01  -2.1925420144437743e-01  1.8154639958846103e-01  1.8945300957713823e-01  -1.1888922998785578e-01  -3.2682014190211474e-02  -1.0022376570194860e-01  3.8815005071918929e-02  3.1447302283350013e-02  6.2063531100413440e-02  -6.1209765784065201e-02  1.4112217564966357e-02  1.6425084579159765e-02  -9.4412569927997316e-03  1.7973560402855915e-01  3.3867279096140099e-03  -3.4065519853163015e-02  1.3400162561223156e-01  1.9114096433028587e-03  1.1044561703280995e-01  -2.1862343253291106e-02  1.7078689970585018e-01  -1.3809072924143509e-02  1.2751205062204030e-01  -8.1942315130513296e-02  6.0350791351917746e-02  1.7430857718831677e-01  -3.3655975079444102e-02  1.1085137577039390e-02  -2.6333277155928279e-02  -1.4569928791067204e-02  -6.1561422834645607e-02  1.2091416279148915e-03  -7.7203444344161168e-02  2.5115378702499463e-01  2.5764435696395072e-01  2.1586485191232785e-01  -7.2901468569563768e-02  -2.5984704240936542e-02  -6.2331405107480135e-02  5.0343260577491472e-02  -1.8992055257721054e-02  -6.2445656223757202e-02  1.9178947999058715e-01  -2.5925200008584462e-02  -1.1701612981080034e-01  1.9406109165016716e-01  2.2884643495361896e-04  2.9531011584948610e-02  9.7705425715186658e-02  6.2966567146922184e-02  1.6847132428844255e-01  8.9694494099388636e-02  -6.7963709203644224e-02  1.2446773173356371e-01  1.6109691479394458e-01  4.3039686747806616e-02  -7.1063034326585450e-02  2.2175531436974566e-01  1.0395743049052310e-01  1.3501484837705574e-01  1.6927264276446702e-01  -2.0185295508397938e-01  -1.5056023719943126e-01  1.5676519309683090e-01  -1.1129397578025078e-01  -1.2270521921326617e-01  -1.5144816925426222e-01  1.2109673813676124e-02  5.0466525685055635e-02  4.4187014214988989e-03  -3.9369929105851020e-02  -2.2248509826761333e-02  -9.7163101293818756e-03  -7.2313049530421281e-02  -8.9795721577161008e-02  -6.1207212610751696e-02  -1.9944221783092065e-02  5.7499765576662365e-02  8.4791238346705239e-02  -4.9728250851345551e-02  -1.5700018045382952e-01  7.7857594548972994e-02  -8.7078476887333892e-03  4.6388740757275018e-02  -5.9342123640307581e-02  -3.1240204302514545e-02  1.4880880602459363e-02  5.6283564240407535e-02  -3.5863208940294343e-02  -5.3905348088653306e-02  2.2343575400397228e-01  1.9372998656895760e-01  -1.1153212533266124e-01  -1.1597695319655467e-01  6.0653525105221456e-02  1.2062371519567046e-01  4.0320304197512966e-02  1.9071789987507837e-01  -3.6754310459090056e-02  3.0153121437464368e-02  1.1186441460284144e-01  1.7361360716283422e-01  8.0077197390052243e-02  2.4677181954432678e-01  -6.1777028680051305e-02  4.0852835709958339e-02  -5.5569832660559690e-02  1.3191314560590976e-04  2.6235374735345995e-01  5.3118512896390968e-02  2.0958222760395664e-01  -4.0644137444790654e-03  -6.8695796368330925e-02  7.1821371234944018e-02  7.5694779592336545e-02  -3.7120892625124684e-02  1.1220539922385640e-01  6.7404165140775296e-02  1.6086033045910875e-01  -4.3076692480288219e-02  -3.3350730045040911e-02  2.4020200105083961e-01  8.6056900867861580e-02  -9.4998437191838814e-02  -2.2246476666924586e-02  6.7597795306558933e-02  -1.2447413207232516e-01  9.9383196857522033e-02  2.5363677117823064e-01  1.2133549224940532e-01  -1.4914301986245004e-02  1.4568634220640078e-01  7.1253062809752452e-02  1.1755307403131673e-01  7.1205781237629912e-02  8.2930472978643543e-03  -4.4827235404034924e-02  1.3605341086581069e-01  6.8488975254017037e-02  6.2978236611254346e-02  1.2721816898423413e-03  -7.8538489410513765e-02  -1.5241942886388617e-02  9.4719859004183546e-02  2.1372355536705917e-01  9.1671607951165621e-02  -2.8614082936688084e-02  -8.9221184240067183e-02  1.2452519130143017e-01  1.8899886186424139e-01  2.6629096121138152e-01  -1.0168122798125728e-01  9.0197751337542861e-02  2.2096066240148166e-02  1.2601919122198055e-01  -1.4086194155700445e-02  2.0379901565165417e-02  -7.3653007969141163e-02  -2.2696616626647981e-01  3.0762378477445323e-02  1.1482656195225249e-01  1.8838792620382036e-01  -1.3176846318469698e-01  9.6285367054802645e-02  -2.2480959347750872e-02  6.4968937399005292e-02  2.5304163427749837e-02  -2.2077589767012176e-01  7.3176069103102509e-02  1.1774144613585959e-01  -6.1972545998612731e-02  7.1881105952038690e-03  2.3176889078965932e-01  1.4049362917486916e-01  1.7989139302263257e-01  -1.1718369424976147e-01  1.3831501125348464e-01  -6.7111304215568657e-02  2.3514063402422744e-01  2.5651819741294320e-02  4.1091151031551747e-02  -5.0716029807151460e-02  -1.2839122257156430e-02  -6.2425287754405687e-02  1.7582015687214930e-01  -3.0747968348980581e-01  2.1918735736512407e-01  -1.3657242916156082e-01  4.8778738523170433e-02  4.5294759135247567e-02  2.9881907376540343e-02  1.5802472957691899e-01  4.4680054500407115e-02  -4.6896274673207741e-03  4.4162171030301706e-02  1.7456824729037196e-01  1.0578919719962000e-01  -3.8428198815629637e-02  3.1255752225968193e-02  1.3598093662121433e-01  1.1224580443951353e-01  -6.0073178146539077e-02  -5.1647359178176269e-02  2.4623461587793133e-02  3.9884980793726252e-02  -4.7846399076172698e-02  3.1629547659583722e-02  2.1251877888533324e-01  3.8530636037554279e-02  -5.8629879821774547e-02  -1.3567838312215419e-01  3.9626208899252377e-02  1.4723215183297503e-01  -5.2712936428705191e-02  2.3677122297003295e-01  2.1255871463495046e-01  5.5020373952968465e-02  9.0429392934110009e-02  3.7717392075616162e-02  1.0262908294630226e-03  2.0557075146148318e-01  -1.8147941153654402e-02  2.0442755374968949e-01  -1.7359253289965207e-01  -7.7712023875309705e-02  -1.0211963544482233e-01  4.2484147269828229e-02  4.5807249836176178e-02  8.6093353394699576e-02  1.5812595943913527e-01  2.6873575730358996e-02  -4.5107376368731841e-02  1.8958403937797161e-01  2.1832815968947119e-02  1.0043466225632341e-01  2.7044877684609525e-01  -1.0663197587574522e-01  9.5509566501861279e-02  -1.1426327742953095e-01  7.3302241742747770e-02  3.3003145575597787e-03  1.7484215998403753e-02  5.5496580498924905e-02  -1.0537817744835218e-01  -3.0661252775732957e-02  -9.5511148637653615e-02  1.0127890954622887e-01  -5.0756058170293814e-02  -1.2960514430791995e-01  1.0626503510451424e-01  2.5462919601751610e-01  -1.1576963175683019e-01  -8.0911209921301741e-02  7.5113350691232515e-03  4.1491900353794818e-02  -1.7578872380283725e-01  2.4209474606451822e-01  -1.0112244449286160e-01  7.1416451091183858e-02  6.5886947667223167e-02  1.6492190475350551e-02  5.5181824541775684e-02  -1.6234729610302310e-03  2.6265462679640084e-01  1.4212025550475466e-01  9.1183365122659565e-02  -9.4888136521018462e-02  -4.0083734321630440e-03  -3.2519931814919190e-02  1.3529016200874333e-01  8.6903129500719184e-02  1.4122396742232865e-01  1.0895132420831836e-01  -2.2386604031299548e-01  -1.3114276662517282e-02  5.1872174283308516e-02  -1.6213301976612986e-03  7.8628021211302343e-02  1.8097282894373762e-01  -5.7753561267851444e-02  -5.1123126152190224e-02  -1.1662540416778068e-02  -5.2547172966921359e-02  2.9699748131580293e-02  1.9497627472587603e-01  2.2169517817538570e-01  -1.5039695040437465e-01  6.0783441176963673e-02  -8.3435367706704247e-02  1.5730365819554723e-01  2.6878975641661782e-02  -8.1958016195674790e-02  -7.1619157205701459e-02  1.2579322977333601e-01  3.0531555674152486e-02  1.1661661150313861e-02  -5.3331435037965627e-02  4.7415771422545355e-02  -2.6822504628178128e-02  1.9686546708879149e-01  -4.1982113059703924e-02  1.3878594161559332e-01  -1.0029191036696074e-01  7.6139696141553559e-03  -4.7233862537294335e-02  -3.1750800460958316e-02  2.8252205875931662e-03  1.6144135796186901e-01  1.4032305169025236e-01  8.0485850901384094e-03  1.5618739915829860e-01  1.1066199750665447e-01  -1.9389694274206823e-02  2.2483080011311776e-01  8.6282255398501082e-02  -1.0819334065607679e-01  -1.1715557795007027e-01  -1.2261680186153924e-03  6.6139096676835589e-03  8.3004956776864869e-02  -4.8439022882744168e-02  9.0364056730469586e-02  1.3686754770581383e-01  6.5132215607154584e-02  -6.9321661857230515e-02  1.7268247422135516e-01  2.4581113625785168e-02  1.9535896576475687e-02  -1.1811390814082655e-02  5.1893080715213383e-02  9.3343050223974156e-02  -1.4642186937621520e-02  -1.2160818798833724e