<?xml version="1.0"?>
<VTKFile type="UnstructuredGrid"  version="0.1"  >
<UnstructuredGrid>
<Piece  NumberOfPoints="4826" NumberOfCells="9274">
<Points>
<DataArray  type="Float64"  NumberOfComponents="3"  format="ascii">0.004357787137616029 0.04980973490456689 0  2.448294430073374e-13 0.05 0  -0.004357787137128233 0.04980973490460956 0  -0.004357787137605706 -0.04980973490456778 0  -2.344882876518267e-13 -0.05 0  0.004357787137138513 -0.04980973490460866 0  -0.2 -0.2 0  0.55 -0.2 0  2 -0.2 0  2 0.21 0  0.55 0.21 0  -0.2 0.21 0  0.002180969368511386 0.0499524110790822 0  -0.002180969368010819 0.04995241107910407 0  -0.002180969368502513 -0.04995241107908259 0  0.002180969368021486 -0.0499524110791036 0  -0.006814597157868607 0.04953343583455493 0  -0.009254746151924908 0.04913603233537922 0  -0.01167226819248128 0.04861849601995923 0  -0.01406125267347753 0.04798209221420657 0  -0.01641585876037609 0.04722837686348521 0  -0.01873032967049142 0.04635919272846228 0  -0.02099900674774951 0.04537666487973717 0  -0.0232163432975249 0.04428319550226104 0  -0.0253769181477669 0.04308145802223435 0  -0.02747544890327456 0.04177439057082161 0  -0.02950680486062692 0.04036518880070902 0  -0.03146601955223609 0.03885729807305569 0  -0.0333483028888871 0.03725440503391573 0  -0.03514905287103829 0.03556042860074884 0  -0.03686386684027007 0.03377951038104073 0  -0.0384885522433417 0.0319160045464898 0  -0.04001913688258778 0.02997446718746979 0  -0.04145187862754741 0.0279596451738408 0  -0.04278327456411638 0.0258764645493049 0  -0.04401006955882648 0.02373001848771415 0  -0.04512926421732728 0.02152555484076227 0  -0.04613812221762188 0.01926846330748221 0  -0.04703417700009761 0.01696426225697686 0  -0.04781523779803292 0.0146185852365256 0  -0.04847939499380464 0.01223716719811699 0  -0.04902502478771633 0.009825830477053876 0  -0.04945079316803359 0.007390470556897103 0  -0.04975565917250895 0.004937041655599784 0  -0.04993887743343513 0.002471542168028815 0  -0.05000000000000002 4.319617580295088e-13 0  -0.04993887743347691 -0.002471542167184487 0  -0.04975565917259078 -0.004937041654775128 0  -0.0494507931681559 -0.007390470556078771 0  -0.04902502478787634 -0.00982583047625548 0  -0.048479394994003 -0.01223716719733118 0  -0.04781523779827011 -0.01461858523574979 0  -0.04703417700037211 -0.01696426225621582 0  -0.04613812221792003 -0.01926846330676828 0  -0.04512926421765873 -0.0215255548400674 0  -0.0440100695591652 -0.02373001848708596 0  -0.04278327456447995 -0.0258764645487038 0  -0.04145187862791943 -0.02795964517328926 0  -0.04001913688296869 -0.02997446718696123 0  -0.03848855224374843 -0.03191600454599933 0  -0.03686386684070041 -0.03377951038057109 0  -0.03514905287149575 -0.03556042860029668 0  -0.03334830288936536 -0.03725440503348761 0  -0.03146601955271191 -0.03885729807267038 0  -0.02950680486109357 -0.0403651888003679 0  -0.02747544890375341 -0.04177439057050667 0  -0.02537691814821718 -0.0430814580219691 0  -0.02321634329799415 -0.04428319550201502 0  -0.02099900674823039 -0.04537666487951462 0  -0.01873032967097447 -0.04635919272826711 0  -0.0164158587608675 -0.0472283768633144 0  -0.01406125267397827 -0.04798209221405982 0  -0.01167226819300015 -0.04861849601983465 0  -0.00925474615244812 -0.04913603233528067 0  -0.006814597158347743 -0.04953343583448901 0  0.006814597157865879 -0.04953343583455529 0  0.009254746151927097 -0.0491360323353788 0  0.01167226819248615 -0.04861849601995805 0  0.01406125267347329 -0.04798209221420779 0  0.01641585876037412 -0.04722837686348589 0  0.01873032967049753 -0.04635919272845981 0  0.02099900674775168 -0.04537666487973616 0  0.02321634329751479 -0.04428319550226633 0  0.02537691814775486 -0.04308145802224143 0  0.02747544890326525 -0.04177439057082774 0  0.02950680486061762 -0.04036518880071581 0  0.03146601955222702 -0.03885729807306303 0  0.0333483028888813 -0.03725440503392092 0  0.03514905287103634 -0.03556042860075076 0  0.03686386684026893 -0.03377951038104196 0  0.03848855224333972 -0.03191600454649218 0  0.04001913688258468 -0.02997446718747393 0  0.04145187862754592 -0.02795964517384301 0  0.04278327456411439 -0.02587646454930818 0  0.04401006955882308 -0.02373001848772046 0  0.04512926421732501 -0.02152555484076704 0  0.04613812221761816 -0.01926846330749109 0  0.04703417700009521 -0.01696426225698355 0  0.04781523779803072 -0.01461858523653281 0  0.04847939499380377 -0.01223716719812044 0  0.04902502478771547 -0.009825830477058137 0  0.04945079316803235 -0.007390470556905473 0  0.04975565917250727 -0.004937041655616693 0  0.0499388774334346 -0.002471542168039619 0  0.05 -4.403257272689309e-13 0  0.04993887743347755 0.002471542167171875 0  0.04975565917259197 0.004937041654763091 0  0.04945079316815711 0.007390470556070629 0  0.04902502478787914 0.009825830476241509 0  0.04847939499400326 0.01223716719733013 0  0.04781523779826526 0.01461858523576567 0  0.0470341770003617 0.01696426225624468 0  0.04613812221791593 0.01926846330677807 0  0.04512926421764892 0.02152555484008794 0  0.04401006955917259 0.02373001848707224 0  0.04278327456448917 0.02587646454868855 0  0.04145187862794129 0.02795964517325684 0  0.04001913688300011 0.02997446718691929 0  0.03848855224377164 0.03191600454597132 0  0.03686386684071396 0.03377951038055631 0  0.03514905287149344 0.03556042860029895 0  0.03334830288935025 0.03725440503350112 0  0.03146601955270811 0.03885729807267346 0  0.0295068048611069 0.04036518880035816 0  0.02747544890376348 0.04177439057050004 0  0.02537691814825449 0.04308145802194713 0  0.02321634329801946 0.04428319550200175 0  0.02099900674825754 0.04537666487950205 0  0.01873032967100249 0.04635919272825579 0  0.0164158587608822 0.04722837686330929 0  0.01406125267398022 0.04798209221405924 0  0.01167226819298624 0.04861849601983799 0  0.009254746152419701 0.04913603233528602 0  0.006814597158349477 0.04953343583448876 0  -0.187519667561546 -0.2 0  -0.1748316574821168 -0.2 0  -0.1619325192212862 -0.2 0  -0.148818726846035 -0.2 0  -0.1354867192353635 -0.2 0  -0.1219328603917423 -0.2 0  -0.1081534592978099 -0.2 0  -0.09414476589796635 -0.2 0  -0.07990295884356099 -0.2 0  -0.06542416303692469 -0.2 0  -0.05070442887227664 -0.2 0  -0.03573975841838681 -0.2 0  -0.02052606515274366 -0.2 0  -0.005059208927244263 -0.2 0  0.01066502121897589 -0.2 0  0.0266509074223695 -0.2 0  0.04290280916834216 -0.2 0  0.05942514657702952 -0.2 0  0.0762224259839136 -0.2 0  0.09329921648059353 -0.2 0  0.110660175036538 -0.2 0  0.1283100227830172 -0.2 0  0.1462535753141169 -0.2 0  0.1644957199166657 -0.2 0  0.1830414159977267 -0.2 0  0.2018957233573105 -0.2 0  0.2210637763821503 -0.2 0  0.2405507887204602 -0.2 0  0.260362079066015 -0.2 0  0.2805030358280229 -0.2 0  0.3009791451426284 -0.2 0  0.3217959904068706 -0.2 0  0.3429592343744705 -0.2 0  0.3644746437000989 -0.2 0  0.3863480795092348 -0.2 0  0.4085854991020529 -0.2 0  0.4311929577241948 -0.2 0  0.4541766164908302 -0.2 0  0.4775427321916551 -0.2 0  0.5012976684604897 -0.2 0  0.5254479006641548 -0.2 0  0.5749999999999358 -0.2 0  0.5999999999998969 -0.2 0  0.6249999999998155 -0.2 0  0.6499999999998081 -0.2 0  0.6749999999997656 -0.2 0  0.6999999999997664 -0.2 0  0.7249999999997357 -0.2 0  0.7499999999996745 -0.2 0  0.7749999999995796 -0.2 0  0.7999999999995281 -0.2 0  0.8249999999994608 -0.2 0  0.8499999999994138 -0.2 0  0.8749999999993301 -0.2 0  0.8999999999992546 -0.2 0  0.9249999999991836 -0.2 0  0.9499999999990955 -0.2 0  0.9749999999990373 -0.2 0  0.9999999999989423 -0.2 0  1.024999999998847 -0.2 0  1.049999999998752 -0.2 0  1.074999999998672 -0.2 0  1.099999999998649 -0.2 0  1.124999999998554 -0.2 0  1.149999999998545 -0.2 0  1.174999999998451 -0.2 0  1.199999999998416 -0.2 0  1.224999999998348 -0.2 0  1.249999999998288 -0.2 0  1.274999999998288 -0.2 0  1.299999999998246 -0.2 0  1.324999999998369 -0.2 0  1.349999999998394 -0.2 0  1.37499999999845 -0.2 0  1.399999999998551 -0.2 0  1.424999999998531 -0.2 0  1.449999999998684 -0.2 0  1.474999999998642 -0.2 0  1.499999999998804 -0.2 0  1.524999999998773 -0.2 0  1.549999999998885 -0.2 0  1.574999999999013 -0.2 0  1.599999999999079 -0.2 0  1.624999999999119 -0.2 0  1.649999999999211 -0.2 0  1.674999999999224 -0.2 0  1.699999999999321 -0.2 0  1.724999999999342 -0.2 0  1.749999999999427 -0.2 0  1.774999999999474 -0.2 0  1.799999999999533 -0.2 0  1.824999999999605 -0.2 0  1.849999999999639 -0.2 0  1.874999999999735 -0.2 0  1.899999999999745 -0.2 0  1.924999999999841 -0.2 0  1.949999999999869 -0.2 0  1.974999999999947 -0.2 0  2 -0.1758823529412649 0  2 -0.1517647058824698 0  2 -0.12764705882371 0  2 -0.103529411764951 0  2 -0.07941176470620959 0  2 -0.05529411764745706 0  2 -0.03117647058865336 0  2 -0.007058823529918185 0  2 0.01705882352889865 0  2 0.04117647058779714 0  2 0.06529411764668486 0  2 0.08941176470558332 0  2 0.1135294117644398 0  2 0.137647058823337 0  2 0.1617647058822356 0  2 0.185882352941134 0  1.975000000000015 0.21 0  1.950000000000055 0.21 0  1.925000000000061 0.21 0  1.90000000000011 0.21 0  1.875000000000116 0.21 0  1.850000000000166 0.21 0  1.825000000000172 0.21 0  1.800000000000206 0.21 0  1.775000000000227 0.21 0  1.750000000000322 0.21 0  1.725000000000369 0.21 0  1.700000000000375 0.21 0  1.675000000000454 0.21 0  1.650000000000517 0.21 0  1.62500000000057 0.21 0  1.600000000000658 0.21 0  1.575000000000687 0.21 0  1.550000000000789 0.21 0  1.525000000000806 0.21 0  1.500000000000905 0.21 0  1.475000000001007 0.21 0  1.450000000001109 0.21 0  1.42500000000121 0.21 0  1.400000000001312 0.21 0  1.375000000001406 0.21 0  1.350000000001428 0.21 0  1.32500000000153 0.21 0  1.300000000001554 0.21 0  1.275000000001647 0.21 0  1.250000000001522 0.21 0  1.225000000001572 0.21 0  1.200000000001437 0.21 0  1.175000000001446 0.21 0  1.15000000000137 0.21 0  1.125000000001303 0.21 0  1.100000000001302 0.21 0  1.075000000001145 0.21 0  1.050000000001136 0.21 0  1.025000000000966 0.21 0  1.000000000000931 0.21 0  0.9750000000008732 0.21 0  0.9500000000008135 0.21
[...]
<PointData  Scalars="pressure"> 
<DataArray  type="Float64"  Name="pressure"  format="ascii">-7.8443685989829126e-01  -6.3420235016628534e-01  -7.4606568820584929e-01  -1.0930780731245651e+00  -1.0976357605645402e+00  -8.2367402140333201e-01  4.6065522538389664e-01  7.2388849359039553e-02  0.0000000000000000e+00  0.0000000000000000e+00  2.9878864624684826e-01  5.2534533999803068e-01  -6.9136608222011098e-01  -6.3761961267275280e-01  -1.1614048935052603e+00  -9.7859883382139712e-01  -7.5082986103337879e-01  -7.7081565532006624e-01  -7.7826109545175304e-01  -7.7339356244228041e-01  -7.5508084991595859e-01  -7.1943452300324362e-01  -6.6927102430468455e-01  -6.0495885473841227e-01  -5.2223825249733768e-01  -4.2198568513845625e-01  -3.0713032386254907e-01  -1.8206772550756847e-01  -4.4709462331191385e-02  1.0871865277300971e-01  2.6528032040310279e-01  4.3240020618653729e-01  6.0058702525250918e-01  7.6701447442400839e-01  9.3891107868254842e-01  1.0982280000509406e+00  1.2583215210645833e+00  1.4046438067171929e+00  1.5390365579025873e+00  1.6616949129257603e+00  1.7657867923838311e+00  1.8518706798165414e+00  1.9195844899799714e+00  1.9680980134518873e+00  1.9910692151133242e+00  1.9940981485399258e+00  1.9752892526543029e+00  1.9333969899994836e+00  1.8711690731273167e+00  1.7873534040080798e+00  1.6859352969553738e+00  1.5688393337838136e+00  1.4322576056791092e+00  1.2864317127442528e+00  1.1261389368943362e+00  9.5667673698818745e-01  7.8250922544451673e-01  6.0304564323440435e-01  4.2591717524415307e-01  2.4906914243760528e-01  7.0207118116626138e-02  -8.9896964036276908e-02  -2.5490412223822145e-01  -4.0182855309248794e-01  -5.3864738627358177e-01  -6.6409143030139550e-01  -7.7622508825761072e-01  -8.6929564429854367e-01  -9.5335538632033012e-01  -1.0148645615468885e+00  -1.0675787110573323e+00  -1.1010578183345543e+00  -1.1223751837890605e+00  -1.1305462000565663e+00  -1.1269939550135659e+00  -8.2543964551187632e-01  -7.9336115355081993e-01  -7.5872984848300662e-01  -7.2417446870983360e-01  -6.9176587421379288e-01  -6.6187628481937877e-01  -6.3479333007085437e-01  -6.1069855064763967e-01  -5.8941750970518081e-01  -5.7117703133595421e-01  -5.5534829577232003e-01  -5.4252698143992639e-01  -5.3206392128612434e-01  -5.2336952452222385e-01  -5.1619937310869946e-01  -5.0994052790028832e-01  -5.0445338660394345e-01  -4.9877026124113683e-01  -4.9272777812015067e-01  -4.8629014195984555e-01  -4.7843097996663370e-01  -4.6986160042164288e-01  -4.6014933600397312e-01  -4.4939013085178742e-01  -4.3829798892185756e-01  -4.2633868635023536e-01  -4.1462619668189987e-01  -4.0289141675018725e-01  -3.9181667706679779e-01  -3.8164858344488917e-01  -3.7244679759636962e-01  -3.6447781233350773e-01  -3.5793025953681051e-01  -3.5225283729548651e-01  -3.4801566690598779e-01  -3.4460275186001643e-01  -3.4213179156669193e-01  -3.4033593557363495e-01  -3.3940771096377903e-01  -3.3909794912037838e-01  -3.3953599259543482e-01  -3.4101519854323398e-01  -3.4352219605307160e-01  -3.4715437697003199e-01  -3.5224232672819378e-01  -3.5900203430507166e-01  -3.6736823738250723e-01  -3.7775311958190738e-01  -3.8985582180206452e-01  -4.0448585542070303e-01  -4.2119714073747511e-01  -4.4104256782093554e-01  -4.6372379244973311e-01  -4.9004515934041359e-01  -5.1986282695455377e-01  -5.5358791225575599e-01  -5.9097741879116805e-01  -6.3321960210084693e-01  -6.7625431446459117e-01  4.6002702954202068e-01  4.5908576804794715e-01  4.5680264081145028e-01  4.5332830033476923e-01  4.4771453713268805e-01  4.3957484799972840e-01  4.2795089485533988e-01  4.1249195984388809e-01  3.9199768483740122e-01  3.6644952762062238e-01  3.3541682202312001e-01  2.9804592668656282e-01  2.5712626433499164e-01  2.1132390702264531e-01  1.6445352566902602e-01  1.1864172345623776e-01  7.5419481497365756e-02  3.5802755336152875e-02  4.4955168724139889e-03  -2.0762086993294310e-02  -3.5882330462893075e-02  -4.2422384521692669e-02  -3.8790687395407322e-02  -2.8235744688942202e-02  -6.7800904695208839e-03  2.3033829083922142e-02  5.9363939496477912e-02  1.0316870231697997e-01  1.4842856916548486e-01  1.9216913511146996e-01  2.3354664881521345e-01  2.6393238667438468e-01  2.8428880440217197e-01  2.8623523032542603e-01  2.7013716229258705e-01  2.3223563915893769e-01  1.8441092997037298e-01  1.3202995886656488e-01  9.3163927172952091e-02  6.5871401112458455e-02  6.4642522074295009e-02  8.3543142199259374e-02  9.3509088842763169e-02  1.0809167475527286e-01  1.2717440050578188e-01  1.5698882668227504e-01  1.9083561247952952e-01  2.2364399473210625e-01  2.4443850293926728e-01  2.5404182368915834e-01  2.4978046685060809e-01  2.3730819120923505e-01  2.1798209780190622e-01  1.9159912601948917e-01  1.6142977122411792e-01  1.2795123270142794e-01  9.0772597043712669e-02  5.2703122417126165e-02  1.9825474232993901e-02  -2.4900249152290531e-03  -4.2137383816276573e-03  2.1357939635438607e-02  7.0975644249203315e-02  1.2906518360327096e-01  1.8409739622122714e-01  2.1899176834264417e-01  2.3766531031209809e-01  2.3441472295324761e-01  2.1121054860927940e-01  1.7029772662089454e-01  1.2008574534185863e-01  6.9203436115924402e-02  2.1040177346032710e-02  -1.4510620629218211e-02  -3.2672106078787649e-02  -3.7415076341663744e-02  -2.3701596467346629e-02  1.0741183219728914e-04  2.7039060216532157e-02  5.8641570058917201e-02  8.7012525615638492e-02  1.0757788405211292e-01  1.1955216044174306e-01  1.1899954498182747e-01  1.0610299019334839e-01  8.0594913813171243e-02  4.7125197043701238e-02  7.2051740874872405e-03  -3.2723435159666928e-02  -6.8194348072259187e-02  -9.3377719462383338e-02  -1.0237636302242234e-01  -9.5027433508391920e-02  -7.5796083216677704e-02  -4.9794246630919636e-02  -2.5090004280797090e-02  -6.2627678377237955e-03  1.6689161041469253e-03  0.0000000000000000e+00  0.0000000000000000e+00  0.0000000000000000e+00  0.0000000000000000e+00  0.0000000000000000e+00  0.0000000000000000e+00  0.0000000000000000e+00  0.0000000000000000e+00  0.0000000000000000e+00  0.0000000000000000e+00  0.0000000000000000e+00  0.0000000000000000e+00  0.0000000000000000e+00  0.0000000000000000e+00  0.0000000000000000e+00  0.0000000000000000e+00  1.5179919521341498e-02  3.4694740561346575e-02  6.0415681331274021e-02  8.5887083620224833e-02  1.0625764960619186e-01  1.2080654365047001e-01  1.2662509223151650e-01  1.2236466580357223e-01  1.0932078978749363e-01  8.8631670155488326e-02  6.0254018976662320e-02  3.2253045375088656e-02  4.3537039398247063e-03  -1.6966117534219383e-02  -2.6750303580635543e-02  -2.4828286550619551e-02  -9.1130122573788164e-03  1.6272522616297590e-02  5.2249435358355724e-02  8.7947112679094247e-02  1.2105821293231755e-01  1.4807853415688829e-01  1.6382367577879836e-01  1.6644799759835341e-01  1.5800419401460472e-01  1.3278325080606182e-01  9.7850461954597234e-02  5.4334444921081075e-02  1.1407973932565461e-02  -2.1360355229873944e-02  -3.1137379403800441e-02  -1.5142105343468867e-02  1.9914405189313273e-02  6.3447639493203756e-02  1.1128757845196617e-01  1.5217689713040644e-01  1.9200586084113977e-01  2.2373676806493190e-01  2.4583565014163913e-01  2.5405200865083888e-01  2.4230654810886959e-01  2.0990685499710149e-01  1.6248212192760522e-01  1.0860888003956133e-01  6.8722054821333686e-02  4.2046449632499316e-02  4.1679372154269874e-02  5.5388942167353558e-02  7.8507751096412462e-02  1.0362257065939828e-01  1.2665185508782126e-01  1.5005885760423607e-01  1.7510858056760278e-01  2.0449510225170273e-01  2.3565742420610253e-01  2.6782515827072312e-01  2.9014811255527601e-01  2.9267613887996141e-01  2.6929729979934341e-01  2.2951402878701227e-01  1.8228140967363879e-01  1.2877711749845663e-01  7.7348544453986381e-02  2.9699720396004343e-02  -1.7564397156024322e-03  -2.2297487220312332e-02  -2.6858560982828312e-02  -2.0219785448787851e-02  -6.7204625966567327e-03  7.1901499381119994e-03  2.1614660330922728e-02  3.4649040146552311e-02  4.6211249437476440e-02  5.7571959290886758e-02  7.0227975709370824e-02  8.5165733689748988e-02  1.0289952469017796e-01  1.2409235904728916e-01  1.4928622156445917e-01  1.7873087098230558e-01  2.1089962190611300e-01  2.4641387584787314e-01  2.8337496597279754e-01  3.2007048004717242e-01  3.5582184818850460e-01  3.8856445312044913e-01  4.1807879727295322e-01  4.4275503678141376e-01  4.6381049873856878e-01  4.8033830745102540e-01  4.9304275484905608e-01  5.0309679115366823e-01  5.1021082842268983e-01  5.1566427110035651e-01  5.1936719839352341e-01  5.2196491409525159e-01  5.2362091006733003e-01  5.2463231291665868e-01  5.2521623703451936e-01  5.2606757071725407e-01  5.2921888386129123e-01  5.3575937957717024e-01  5.4651780199425659e-01  5.6226775980052002e-01  5.8311246468822997e-01  6.0888744452279664e-01  6.3903644784094660e-01  6.7265045572838178e-01  7.0763145220287627e-01  7.4247111758120066e-01  7.7431086383134540e-01  8.0037138151027365e-01  8.1914934418635466e-01  8.2906519597324335e-01  8.2611242906516524e-01  8.1341019800983982e-01  7.9037010792378559e-01  7.5865526754532853e-01  7.2177314266324744e-01  6.8070141366046155e-01  6.3942256494247118e-01  5.9940772375539475e-01  5.6332906955917361e-01  5.3206161133036978e-01  5.0666198232111270e-01  4.8732931998940365e-01  4.7378646173091216e-01  4.6578649542351308e-01  4.6149780373276050e-01  4.6051301096312863e-01  6.9273637639800795e-02  6.1098323327552120e-02  5.1397293336205588e-02  5.0192321627253095e-02  5.5813330756531394e-02  5.6049568018519486e-02  5.5192006516441128e-02  7.5305751600276236e-02  1.2034197691587752e-01  1.8121208708448808e-01  2.4479777438293851e-01  2.8454403764770703e-01  3.0480439560236372e-01  3.2062951623545694e-01  3.1539733816768922e-01  3.0300162666484565e-01  6.7343448556036356e-02  -6.7979247421214084e-02  -2.6203310426390809e-02  7.2003828286186606e-03  5.1848821357642384e-02  -3.4631952561553145e-02  -9.9478867281695693e-02  9.5499772130692703e-02  -9.1294229289614837e-02  2.2913835172562783e-01  2.1453385922207760e-01  5.9162995062947692e-02  -1.5592793716985204e-01  1.1468274322622067e-01  1.5666288780316981e-01  -4.8836208285582106e-02  -1.4439571358358383e-01  2.1838361363145320e-01  -1.6372247087129255e-01  1.6545952057758789e-01  -5.7448026383567413e-02  2.1012397177735870e-02  4.6126416818888273e-02  -6.4152974378011471e-02  -1.3703812726279266e-01  7.9047551823902287e-02  7.6261475628368922e-02  1.4681078558179497e-01  -1.7212551298340312e-01  -2.7522970330970484e-02  1.3408627804316675e-01  1.3351326277674000e-02  2.8029386980120746e-01  1.6068934586859035e-01  -7.9261134264998714e-02  -1.1956465785301774e-02  -1.7589433021478119e-02  1.5121176122551697e-01  -1.3915191584171944e-02  -1.0016485408653120e-02  1.4503274927714627e-01  -2.1662785918534159e-02  3.3535036740891762e-02  1.4676551482312808e-01  1.6251602122087264e-01  6.6987834582114561e-02  8.7172064479796196e-02  1.1769984088374378e-02  7.5015899206607839e-02  5.8465602353750160e-02  2.5151301305391349e-01  -1.8039671339572808e-02  5.2108772150075304e-02  -7.8143461504867812e-02  2.3346040885160173e-02  -8.6561357067627465e-02  -1.2299529274198738e-02  1.2424544149322772e-02  7.8351442049646308e-03  2.5848987652103211e-01  2.5391491472507544e-01  -3.4435551828606414e-02  -1.3232544707141478e-01  -1.3383350032409527e-01  1.3549349554088475e-01  1.0251242077706868e-01  8.3822807005353786e-02  -8.3876827300593260e-02  1.2395252944181468e-02  1.1298240670765912e-01  1.7794435683467777e-01  2.4322565745724674e-02  -8.4955685292580990e-02  -1.6053519944463888e-02  1.1930865792459602e-01  -4.9648792430743299e-02  1.0259631968810535e-02  -1.6781572950014836e-01  1.7668439355756016e-01  4.6680136879755224e-02  1.3902147894450861e-02  2.0741660608914564e-01  -8.2977457391040663e-02  1.8273316153868888e-01  3.2045792023339882e-02  1.2877833030055977e-01  -1.0922471819009948e-01  1.5114843672619546e-01  -5.2511599995750261e-03  2.6191852055477072e-01  1.8895871364684916e-01  1.3867867657836208e-01  1.9581405960139572e-02  -6.7614481727650333e-02  8.7691730640594379e-02  5.6863123783016660e-02  3.7572298417509448e-02  -1.0710262608770275e-01  3.4169106844949018e-02  3.2951862168418090e-02  2.6870701551528786e-01  1.2185190983802612e-01  -9.2113189314225630e-02  2.5137772025701483e-01  -1.1529047578391717e-02  -2.1038749157286518e-01  6.0872287060797586e-02  1.6073463828876287e-02  1.8138441644725797e-01  -1.8459802353833601e-01  9.3915653582590963e-02  1.8892027876080360e-02  9.6128807348903389e-02  -1.6588222993550592e-02  -7.1879882542183859e-02  7.3418038094764937e-02  -7.4097429552768979e-03  -6.2698856964523353e-03  4.4219959401572112e-02  -9.0033047851974905e-03  1.6075281597994107e-01  1.3280042075382232e-03  -7.0536243073048233e-02  1.8828607284389420e-01  1.8819063399750899e-01  1.0789296528907640e-01  -1.4653433078966946e-01  1.0655451032768554e-01  2.8750524083393674e-03  -7.2010050724866423e-02  -2.1025187041737073e-02  -8.0990219172124792e-03  5.5808998965146100e-02  -3.8057771441207332e-02  1.8947143611810036e-01  2.0422273314553377e-01  9.8204797731346868e-02  1.5497054672217631e-01  -2.6083022469746770e-02  2.1251032856493185e-02  2.8009385055513453e-01  5.3835480146943088e-02  1.8757577781724832e-02  -3.0412567759594177e-02  1.1601132790963159e-01  2.3823390325465135e-01  -2.0309657496793843e-01  1.0732208082945553e-01  -4.3165182449966352e-02  2.5598331890104866e-03  1.9453672080098489e-01  2.2821178025912317e-01  -1.0741466035491125e-01  2.0947596702267961e-02  -1.2292705444422791e-02  9.7044380493817903e-02  -1.5797949281929551e-02  -8.1891390948195572e-02  -3.5107347917097742e-02  2.6496954643363813e-01  -4.1497599634623489e-02  1.0488656126044311e-01  1.8866915839549872e-01  -2.8325483899456428e-02  9.7137688997483984e-03  2.0194005730197395e-01  -3.7807494900774515e-02  5.1516764967891775e-03  1.1511923711745126e-01  -1.2913477701289394e-01  -1.1606539949888887e-02  1.4115559182922549e-01  -4.5720801749077736e-02  1.3503375991893810e-01  -1.1920739757866687e-01  -5.1887917425646385e-02  -9.6752633927778928e-02  -3.1272855744624690e-02  6.4584779871706327e-02  4.1398024517606366e-02  1.2272673442766253e-01  4.5592112942050428e-02  -1.1585138522836552e-01  -8.7210102196149913e-02  1.4912085738286240e-01  8.6675217972825583e-02  2.2914073282798882e-02  2.9167869582359579e-01  3.4561053304691808e-03  2.8754278699076468e-02  1.3820349617378758e-01  9.6126161642617364e-02  8.7819891223751306e-02  1.6548189516584416e-01  8.7508950521015400e-02  -3.3677445776250009e-02  9.3689368129029740e-02  -1.0642934949230323e-02  1.8255330676107934e-01  5.4780330931483497e-02  1.1684655650208205e-01  -1.1572744702329271e-01  4.0884554380736043e-02  6.6000201468251515e-02  1.2960583167229547e-01  8.7947532963517261e-02  1.8387709719669768e-01  1.0123141000352077e-01  1.4959007230455329e-01  5.8431392018194660e-02  -6.2479605907410869e-02  1.2256778376482548e-01  -5.2704918145137697e-02  -6.6604961819997865e-02  -1.3376195889668363e-01  -2.3388113260727081e-02  -5.1205477518901150e-02  7.5253853075518851e-02  2.2596830675755297e-01  2.7203097953833977e-01  2.8480431048641802e-01  8.1023433862967273e-02  3.2771907600510730e-03  -2.6147811907744224e-02  -6.1218806842725224e-02  1.1871120146821534e-01  1.0345571150283861e-01  -6.5011517516268047e-02  -2.8204738973285116e-02  8.8207004124577756e-02  -8.1194680773018058e-02  -6.6898374557758031e-02  -2.0442764667288202e-04  -2.0907387542531942e-02  2.3547348024965029e-01  2.6580448186588761e-02  8.1810660887585276e-02  -8.6271445723377665e-02  2.6055907136921724e-01  7.0720066030939263e-02  1.6971299939192039e-01  -1.0834973161081038e-01  2.6017081933750391e-01  -2.9850824831829648e-01  -4.0782649849351829e-02  -5.9576027399644909e-03  3.8957369611190992e-02  3.8974995227340173e-02  2.5040044070393997e-02  -1.2524637084711998e-01  2.4927114893355148e-01  1.0117129410403825e-01  4.4796694391397596e-03  1.0286423055479151e-01  4.2056875607386940e-02  4.8430582001513532e-02  2.4441435106853350e-02  2.5774682864608078e-01  -9.8728260017000649e-02  4.2806775286585087e-02  3.4007908320642578e-02  -3.6672374051638272e-03  2.3908492700342374e-01  4.2413046573573893e-02  9.5503970460593265e-02  -2.1193599271721195e-01  -3.9142928569473524e-02  -3.0121258685855298e-02  2.3325939473289842e-01  1.4849737203879176e-01  1.8384621334076090e-01  -7.3810173190509420e-02  -3.3285546142878750e-03  4.0367286403723390e-02  8.6727473568226868e-02  1.5176596937992362e-01  4.6126095964750688e-02  1.4424964582913263e-01  1.6488786625719271e-01  9.6314559118145668e-02  -1.9349001059099175e-01  3.4151514199316571e-02  3.6291588729089289e-02  -1.3619574776303323e-01  1.6991933674818400e-02  3.0748531118411088e-01  6.7986462108461071e-02  1.3268442231178167e-02  -4.7995086636359957e-02  4.4011210843757503e-02  1.0588943186122175e-01  4.9322355394420753e-03  -1.1828462963702630e-02  2.2191049312961272e-01  4.5735326412654445e-02  -1.6362803259667283e-01  1.2856855437954112e-01  1.8811265282478390e-01  2.4340411621018916e-02  1.5731294455258754e-02  1.7323668651521913e-02  -1.3963477954361320e-01  4.4939912773633163e-02  -1.0792108298393419e-01  1.4944861115781483e-01  2.3025278550826411e-01  5.2087767797272935e-02  -2.1376090361414510e-02  -1.4091175621380889e-01  -1.3936824563436093e-01  1.0540173058850495e-01  1.1563810257473900e-01  2.3287518289379658e-01  -6.7851367729316006e-02  -7.7115719467929181e-02  1.9504243433769256e-01  -8.8129407034825003e-04  2.3442784552773888e-01  -6.2130399902154104e-02  4.6967669390504486e-02  -9.5912411357838515e-03  2.1401718443944180e-02  4.4463441202819531e-02  1.0099751221893252e-01  1.0058619765929985e-01  2.0668489870214185e-01  -1.2426750305834990e-01  -5.0924848308246132e-02  2.8531387846001368e-02  4.0928135521600587e-02  2.3887067211841055e-03  1.3790727847069081e-01  1.7362916506132128e-01  -1.9728174687538000e-02  -4.1490778126920806e-02  2.6796428971808717e-01  -7.1513603797249926e-03  1.1296313138496830e-01  -2.2814677162285402e-02  1.1329105510495864e-01  1.1905780975573034e-01  -3.8217769812090602e-02  1.4614645849692148e-01  4.4828821450816153e-02  -1.7520758215868382e-01  7.6083644053106997e-02  2.0073476216930183e-01  -6.8104624112088397e-02  1.1895384259969483e-01  5.9132017700691597e-02  -1.4391888015444387e-02  1.4761584757115562e-01  2.4239567858625000e-01  1.7411690444121103e-01  2.0926624889337966e-02  1.3471571573951363e-01  1.0845412348898784e-01  -3.8952874932312961e-02  7.5048764039380628e-02  1.2436463133980323e-01  -3.4713139628197252e-03  1.6474653079480356e-01  9.0142481112848630e-02  1.0319866826171629e-01  1.1469247671468262e-01  -4.2462656043813884e-02  2.3274947741271884e-03  2.8111710052122657e-01  4.4245698030633260e-02  -1.6603972809613954e-01  1.7347422198183238e-02  1.3215833274105673e-01  3.0921752438392423e-02  2.3982841760140164e-01  1.6995171470214201e-01  1.5428694228488096e-01  -6.9163226938159544e-02  -4.7374168377501275e-02  -9.7598411356157530e-02  2.5100280444540157e-01  2.1734582639996194e-01  3.7873917290458498e-02  4.6865728449514872e-03  5.6518166503445065e-02  1.1539013011500523e-01  -4.6658213040604864e-02  7.6377175639329012e-02  1.5730650373269839e-01  -2.0474993590784604e-01  8.6009467738533893e-02  -7.5176241646903244e-02  1.8548063962192168e-01  -9.8091077167113461e-02  -1.8852974015335566e-03  -1.8618324332286378e-02  -2.1328316762304071e-02  -2.0667895336240322e-01  1.0219867316783721e-01  -3.3720295869109707e-03  -2.9175919584315990e-02  1.6147567564676168e-01  4.8780347216329102e-02  -1.1346141898838749e-01  1.4184600273583781e-01  1.2820206667366310e-01  4.9978092931457850e-02  -3.2816714481820521e-03  2.4005987496681655e-03  -1.0761815983749809e-01  5.6191415728751595e-02  2.1419411269044168e-02  -5.0177433740858382e-02  3.4338938682545499e-02  -1.1722675582038457e-01  2.1328588870560557e-02  2.2856677371975817e-01  1.4935498177038539e-01  1.8709449400525192e-02  8.0119165834488624e-04  5.5939975519721082e-02  -7.7530435391399269e-02  1.3718788130703739e-02  -7.5838673360496725e-02  1.0919254937739008