<?xml version="1.0"?>
<VTKFile type="UnstructuredGrid"  version="0.1"  >
<UnstructuredGrid>
<Piece  NumberOfPoints="4826" NumberOfCells="9274">
<Points>
<DataArray  type="Float64"  NumberOfComponents="3"  format="ascii">0.004357787137616029 0.04980973490456689 0  2.448294430073374e-13 0.05 0  -0.004357787137128233 0.04980973490460956 0  -0.004357787137605706 -0.04980973490456778 0  -2.344882876518267e-13 -0.05 0  0.004357787137138513 -0.04980973490460866 0  -0.2 -0.2 0  0.55 -0.2 0  2 -0.2 0  2 0.21 0  0.55 0.21 0  -0.2 0.21 0  0.002180969368511386 0.0499524110790822 0  -0.002180969368010819 0.04995241107910407 0  -0.002180969368502513 -0.04995241107908259 0  0.002180969368021486 -0.0499524110791036 0  -0.006814597157868607 0.04953343583455493 0  -0.009254746151924908 0.04913603233537922 0  -0.01167226819248128 0.04861849601995923 0  -0.01406125267347753 0.04798209221420657 0  -0.01641585876037609 0.04722837686348521 0  -0.01873032967049142 0.04635919272846228 0  -0.02099900674774951 0.04537666487973717 0  -0.0232163432975249 0.04428319550226104 0  -0.0253769181477669 0.04308145802223435 0  -0.02747544890327456 0.04177439057082161 0  -0.02950680486062692 0.04036518880070902 0  -0.03146601955223609 0.03885729807305569 0  -0.0333483028888871 0.03725440503391573 0  -0.03514905287103829 0.03556042860074884 0  -0.03686386684027007 0.03377951038104073 0  -0.0384885522433417 0.0319160045464898 0  -0.04001913688258778 0.02997446718746979 0  -0.04145187862754741 0.0279596451738408 0  -0.04278327456411638 0.0258764645493049 0  -0.04401006955882648 0.02373001848771415 0  -0.04512926421732728 0.02152555484076227 0  -0.04613812221762188 0.01926846330748221 0  -0.04703417700009761 0.01696426225697686 0  -0.04781523779803292 0.0146185852365256 0  -0.04847939499380464 0.01223716719811699 0  -0.04902502478771633 0.009825830477053876 0  -0.04945079316803359 0.007390470556897103 0  -0.04975565917250895 0.004937041655599784 0  -0.04993887743343513 0.002471542168028815 0  -0.05000000000000002 4.319617580295088e-13 0  -0.04993887743347691 -0.002471542167184487 0  -0.04975565917259078 -0.004937041654775128 0  -0.0494507931681559 -0.007390470556078771 0  -0.04902502478787634 -0.00982583047625548 0  -0.048479394994003 -0.01223716719733118 0  -0.04781523779827011 -0.01461858523574979 0  -0.04703417700037211 -0.01696426225621582 0  -0.04613812221792003 -0.01926846330676828 0  -0.04512926421765873 -0.0215255548400674 0  -0.0440100695591652 -0.02373001848708596 0  -0.04278327456447995 -0.0258764645487038 0  -0.04145187862791943 -0.02795964517328926 0  -0.04001913688296869 -0.02997446718696123 0  -0.03848855224374843 -0.03191600454599933 0  -0.03686386684070041 -0.03377951038057109 0  -0.03514905287149575 -0.03556042860029668 0  -0.03334830288936536 -0.03725440503348761 0  -0.03146601955271191 -0.03885729807267038 0  -0.02950680486109357 -0.0403651888003679 0  -0.02747544890375341 -0.04177439057050667 0  -0.02537691814821718 -0.0430814580219691 0  -0.02321634329799415 -0.04428319550201502 0  -0.02099900674823039 -0.04537666487951462 0  -0.01873032967097447 -0.04635919272826711 0  -0.0164158587608675 -0.0472283768633144 0  -0.01406125267397827 -0.04798209221405982 0  -0.01167226819300015 -0.04861849601983465 0  -0.00925474615244812 -0.04913603233528067 0  -0.006814597158347743 -0.04953343583448901 0  0.006814597157865879 -0.04953343583455529 0  0.009254746151927097 -0.0491360323353788 0  0.01167226819248615 -0.04861849601995805 0  0.01406125267347329 -0.04798209221420779 0  0.01641585876037412 -0.04722837686348589 0  0.01873032967049753 -0.04635919272845981 0  0.02099900674775168 -0.04537666487973616 0  0.02321634329751479 -0.04428319550226633 0  0.02537691814775486 -0.04308145802224143 0  0.02747544890326525 -0.04177439057082774 0  0.02950680486061762 -0.04036518880071581 0  0.03146601955222702 -0.03885729807306303 0  0.0333483028888813 -0.03725440503392092 0  0.03514905287103634 -0.03556042860075076 0  0.03686386684026893 -0.03377951038104196 0  0.03848855224333972 -0.03191600454649218 0  0.04001913688258468 -0.02997446718747393 0  0.04145187862754592 -0.02795964517384301 0  0.04278327456411439 -0.02587646454930818 0  0.04401006955882308 -0.02373001848772046 0  0.04512926421732501 -0.02152555484076704 0  0.04613812221761816 -0.01926846330749109 0  0.04703417700009521 -0.01696426225698355 0  0.04781523779803072 -0.01461858523653281 0  0.04847939499380377 -0.01223716719812044 0  0.04902502478771547 -0.009825830477058137 0  0.04945079316803235 -0.007390470556905473 0  0.04975565917250727 -0.004937041655616693 0  0.0499388774334346 -0.002471542168039619 0  0.05 -4.403257272689309e-13 0  0.04993887743347755 0.002471542167171875 0  0.04975565917259197 0.004937041654763091 0  0.04945079316815711 0.007390470556070629 0  0.04902502478787914 0.009825830476241509 0  0.04847939499400326 0.01223716719733013 0  0.04781523779826526 0.01461858523576567 0  0.0470341770003617 0.01696426225624468 0  0.04613812221791593 0.01926846330677807 0  0.04512926421764892 0.02152555484008794 0  0.04401006955917259 0.02373001848707224 0  0.04278327456448917 0.02587646454868855 0  0.04145187862794129 0.02795964517325684 0  0.04001913688300011 0.02997446718691929 0  0.03848855224377164 0.03191600454597132 0  0.03686386684071396 0.03377951038055631 0  0.03514905287149344 0.03556042860029895 0  0.03334830288935025 0.03725440503350112 0  0.03146601955270811 0.03885729807267346 0  0.0295068048611069 0.04036518880035816 0  0.02747544890376348 0.04177439057050004 0  0.02537691814825449 0.04308145802194713 0  0.02321634329801946 0.04428319550200175 0  0.02099900674825754 0.04537666487950205 0  0.01873032967100249 0.04635919272825579 0  0.0164158587608822 0.04722837686330929 0  0.01406125267398022 0.04798209221405924 0  0.01167226819298624 0.04861849601983799 0  0.009254746152419701 0.04913603233528602 0  0.006814597158349477 0.04953343583448876 0  -0.187519667561546 -0.2 0  -0.1748316574821168 -0.2 0  -0.1619325192212862 -0.2 0  -0.148818726846035 -0.2 0  -0.1354867192353635 -0.2 0  -0.1219328603917423 -0.2 0  -0.1081534592978099 -0.2 0  -0.09414476589796635 -0.2 0  -0.07990295884356099 -0.2 0  -0.06542416303692469 -0.2 0  -0.05070442887227664 -0.2 0  -0.03573975841838681 -0.2 0  -0.02052606515274366 -0.2 0  -0.005059208927244263 -0.2 0  0.01066502121897589 -0.2 0  0.0266509074223695 -0.2 0  0.04290280916834216 -0.2 0  0.05942514657702952 -0.2 0  0.0762224259839136 -0.2 0  0.09329921648059353 -0.2 0  0.110660175036538 -0.2 0  0.1283100227830172 -0.2 0  0.1462535753141169 -0.2 0  0.1644957199166657 -0.2 0  0.1830414159977267 -0.2 0  0.2018957233573105 -0.2 0  0.2210637763821503 -0.2 0  0.2405507887204602 -0.2 0  0.260362079066015 -0.2 0  0.2805030358280229 -0.2 0  0.3009791451426284 -0.2 0  0.3217959904068706 -0.2 0  0.3429592343744705 -0.2 0  0.3644746437000989 -0.2 0  0.3863480795092348 -0.2 0  0.4085854991020529 -0.2 0  0.4311929577241948 -0.2 0  0.4541766164908302 -0.2 0  0.4775427321916551 -0.2 0  0.5012976684604897 -0.2 0  0.5254479006641548 -0.2 0  0.5749999999999358 -0.2 0  0.5999999999998969 -0.2 0  0.6249999999998155 -0.2 0  0.6499999999998081 -0.2 0  0.6749999999997656 -0.2 0  0.6999999999997664 -0.2 0  0.7249999999997357 -0.2 0  0.7499999999996745 -0.2 0  0.7749999999995796 -0.2 0  0.7999999999995281 -0.2 0  0.8249999999994608 -0.2 0  0.8499999999994138 -0.2 0  0.8749999999993301 -0.2 0  0.8999999999992546 -0.2 0  0.9249999999991836 -0.2 0  0.9499999999990955 -0.2 0  0.9749999999990373 -0.2 0  0.9999999999989423 -0.2 0  1.024999999998847 -0.2 0  1.049999999998752 -0.2 0  1.074999999998672 -0.2 0  1.099999999998649 -0.2 0  1.124999999998554 -0.2 0  1.149999999998545 -0.2 0  1.174999999998451 -0.2 0  1.199999999998416 -0.2 0  1.224999999998348 -0.2 0  1.249999999998288 -0.2 0  1.274999999998288 -0.2 0  1.299999999998246 -0.2 0  1.324999999998369 -0.2 0  1.349999999998394 -0.2 0  1.37499999999845 -0.2 0  1.399999999998551 -0.2 0  1.424999999998531 -0.2 0  1.449999999998684 -0.2 0  1.474999999998642 -0.2 0  1.499999999998804 -0.2 0  1.524999999998773 -0.2 0  1.549999999998885 -0.2 0  1.574999999999013 -0.2 0  1.599999999999079 -0.2 0  1.624999999999119 -0.2 0  1.649999999999211 -0.2 0  1.674999999999224 -0.2 0  1.699999999999321 -0.2 0  1.724999999999342 -0.2 0  1.749999999999427 -0.2 0  1.774999999999474 -0.2 0  1.799999999999533 -0.2 0  1.824999999999605 -0.2 0  1.849999999999639 -0.2 0  1.874999999999735 -0.2 0  1.899999999999745 -0.2 0  1.924999999999841 -0.2 0  1.949999999999869 -0.2 0  1.974999999999947 -0.2 0  2 -0.1758823529412649 0  2 -0.1517647058824698 0  2 -0.12764705882371 0  2 -0.103529411764951 0  2 -0.07941176470620959 0  2 -0.05529411764745706 0  2 -0.03117647058865336 0  2 -0.007058823529918185 0  2 0.01705882352889865 0  2 0.04117647058779714 0  2 0.06529411764668486 0  2 0.08941176470558332 0  2 0.1135294117644398 0  2 0.137647058823337 0  2 0.1617647058822356 0  2 0.185882352941134 0  1.975000000000015 0.21 0  1.950000000000055 0.21 0  1.925000000000061 0.21 0  1.90000000000011 0.21 0  1.875000000000116 0.21 0  1.850000000000166 0.21 0  1.825000000000172 0.21 0  1.800000000000206 0.21 0  1.775000000000227 0.21 0  1.750000000000322 0.21 0  1.725000000000369 0.21 0  1.700000000000375 0.21 0  1.675000000000454 0.21 0  1.650000000000517 0.21 0  1.62500000000057 0.21 0  1.600000000000658 0.21 0  1.575000000000687 0.21 0  1.550000000000789 0.21 0  1.525000000000806 0.21 0  1.500000000000905 0.21 0  1.475000000001007 0.21 0  1.450000000001109 0.21 0  1.42500000000121 0.21 0  1.400000000001312 0.21 0  1.375000000001406 0.21 0  1.350000000001428 0.21 0  1.32500000000153 0.21 0  1.300000000001554 0.21 0  1.275000000001647 0.21 0  1.250000000001522 0.21 0  1.225000000001572 0.21 0  1.200000000001437 0.21 0  1.175000000001446 0.21 0  1.15000000000137 0.21 0  1.125000000001303 0.21 0  1.100000000001302 0.21 0  1.075000000001145 0.21 0  1.050000000001136 0.21 0  1.025000000000966 0.21 0  1.000000000000931 0.21 0  0.9750000000008732 0.21 0  0.9500000000008135 0.21
[...]
<PointData  Scalars="pressure"> 
<DataArray  type="Float64"  Name="pressure"  format="ascii">-8.2433167055671219e-01  -1.1048570400953219e+00  -1.1230451842028450e+00  -7.6674952650048123e-01  -6.7692714312858449e-01  -7.8860804633668913e-01  5.3050795268161610e-01  1.8508690139410131e-01  0.0000000000000000e+00  0.0000000000000000e+00  1.0588951709488525e-01  4.1700619994392091e-01  -9.8006915248444360e-01  -1.1703321720471260e+00  -6.7107322918116818e-01  -7.1840278740319774e-01  -1.1623328939263837e+00  -1.1737549279920465e+00  -1.1700117203635934e+00  -1.1545814412725979e+00  -1.1240742017540537e+00  -1.0762477492101672e+00  -1.0137744439193095e+00  -9.3700082584038802e-01  -8.4157556541468814e-01  -7.2840646683152777e-01  -6.0033514312821301e-01  -4.6306297559316273e-01  -3.1301879237440977e-01  -1.4619136250002907e-01  2.2944763488264144e-02  2.0358418719149227e-01  3.8485342358460478e-01  5.6454300815822600e-01  7.5051652821002757e-01  9.2334025165109324e-01  1.0980871618259935e+00  1.2589325699468343e+00  1.4081394889399508e+00  1.5461143904984724e+00  1.6656791798668695e+00  1.7672933353629798e+00  1.8510943403299329e+00  1.9157895032257963e+00  1.9548677472238352e+00  1.9741514003536484e+00  1.9715754910973644e+00  1.9458841893849090e+00  1.8996008276980472e+00  1.8317425021009948e+00  1.7458639780998004e+00  1.6438524886573282e+00  1.5223657879688628e+00  1.3909709652488087e+00  1.2450804275685614e+00  1.0897285502227019e+00  9.2921185295750730e-01  7.6317556744189285e-01  5.9899858413900120e-01  4.3486681027953472e-01  2.6922768852639667e-01  1.2058924598236019e-01  -3.1049519664693052e-02  -1.6610474774273137e-01  -2.9060506296198430e-01  -4.0370622597139139e-01  -5.0327920599789366e-01  -5.8421988630641042e-01  -6.5564005368322642e-01  -7.0530543185199179e-01  -7.4601986673925902e-01  -7.6766866923199351e-01  -7.7847096364169455e-01  -7.7510672394791591e-01  -7.6338752484905881e-01  -7.0775206656899647e-01  -6.6617690936133722e-01  -6.2904144779117777e-01  -5.9421758862628471e-01  -5.6418891485854661e-01  -5.3732199338165976e-01  -5.1406288683759560e-01  -4.9382119041777905e-01  -4.7650391627455885e-01  -4.6180151889681093e-01  -4.4905110693276312e-01  -4.3848069729938005e-01  -4.2950356931757949e-01  -4.2147085404191437e-01  -4.1448044765587599e-01  -4.0814611580913179e-01  -4.0271303984407764e-01  -3.9763727850659686e-01  -3.9319997583874866e-01  -3.8906774618455275e-01  -3.8612340649287330e-01  -3.8342316934715154e-01  -3.8185328306019506e-01  -3.8110558403661898e-01  -3.8147666119199602e-01  -3.8320215983979511e-01  -3.8609927872806521e-01  -3.9035021831787337e-01  -3.9575921408463888e-01  -4.0220427703126116e-01  -4.0959907725271971e-01  -4.1718621090531183e-01  -4.2516621517981296e-01  -4.3293640214658696e-01  -4.4014332643306747e-01  -4.4656949671324481e-01  -4.5247742314853945e-01  -4.5718495524234037e-01  -4.6138171504375824e-01  -4.6490363487097724e-01  -4.6783310965790470e-01  -4.7114007136122882e-01  -4.7468580684710177e-01  -4.7907283422767633e-01  -4.8495389823227864e-01  -4.9281537918017221e-01  -5.0282774114373507e-01  -5.1556907718590861e-01  -5.3080899836287621e-01  -5.4916355850167853e-01  -5.7018642038977607e-01  -5.9452763228839800e-01  -6.2193989087792523e-01  -6.5264046871527048e-01  -6.8656498401898869e-01  -7.2324044643553032e-01  -7.6193045300938356e-01  -8.0074731913030650e-01  -8.4302159453791958e-01  5.2981581461778615e-01  5.2877220038551198e-01  5.2650208154531297e-01  5.2322100928243687e-01  5.1818745805770605e-01  5.1117161846347936e-01  5.0143937433647601e-01  4.8871445988403917e-01  4.7197071694840775e-01  4.5111621375648914e-01  4.2556627822259824e-01  3.9448962593477166e-01  3.5993694256612485e-01  3.2081248856895567e-01  2.8009574415997734e-01  2.3958536774020942e-01  2.0090796789558746e-01  1.6503637881485400e-01  1.3594324333630697e-01  1.1161886742257619e-01  9.5243349137335037e-02  8.4996610474937784e-02  8.0882610780220590e-02  8.0092151668046979e-02  8.3665524723919166e-02  8.8073295281411820e-02  9.1590312654580897e-02  9.1626850349981886e-02  8.7987581608448967e-02  7.7475503902471168e-02  5.7404910734681562e-02  3.0583278838779444e-02  -3.0376035902792065e-04  -2.8232564187698213e-02  -4.2567856445041984e-02  -4.0552861314428507e-02  -1.9081328067914894e-02  1.4696842599603539e-02  6.0266284202607649e-02  1.0506347748238411e-01  1.4666382850925128e-01  2.1599653944614455e-01  2.3504477818107952e-01  2.4197399344394144e-01  2.4038476873605033e-01  2.2867203767677058e-01  2.1190675659843911e-01  1.9117344170097933e-01  1.6804356461875608e-01  1.4152365181892843e-01  1.1063458229679442e-01  7.6585137639784306e-02  4.2901886516266002e-02  1.3960797779231610e-02  -5.6848366069032529e-03  -1.5729788432476480e-03  2.2834821953817634e-02  7.1199599747070047e-02  1.2661351450749719e-01  1.8102089865044696e-01  2.1804736013087073e-01  2.3288092565643448e-01  2.2683668095472717e-01  2.0140113823660544e-01  1.6005029455270031e-01  1.1067529856685075e-01  5.1178736105686497e-02  -1.6901884481235435e-03  -4.1604520562858259e-02  -5.6573855121917774e-02  -5.4659937303937894e-02  -3.2463761765263242e-02  1.0741615566551275e-03  3.8613933711800282e-02  7.5908797996382574e-02  1.0703208736603002e-01  1.2592395802190104e-01  1.3594717179659180e-01  1.3383755675879708e-01  1.1633064769182958e-01  8.9480177823904258e-02  5.3027574737779380e-02  1.1497790495014024e-02  -2.7978530276827281e-02  -6.1035616817887280e-02  -7.7800092489455491e-02  -7.9276654828366586e-02  -6.0936560394998771e-02  -3.0893405315828890e-02  6.5621733806975995e-03  4.2555362724017526e-02  7.0025257141703517e-02  8.9099161833480142e-02  9.6173518043981762e-02  9.1802159793469743e-02  7.6921345658216997e-02  5.3581120351742145e-02  2.7520131524289837e-02  0.0000000000000000e+00  0.0000000000000000e+00  0.0000000000000000e+00  0.0000000000000000e+00  0.0000000000000000e+00  0.0000000000000000e+00  0.0000000000000000e+00  0.0000000000000000e+00  0.0000000000000000e+00  0.0000000000000000e+00  0.0000000000000000e+00  0.0000000000000000e+00  0.0000000000000000e+00  0.0000000000000000e+00  0.0000000000000000e+00  0.0000000000000000e+00  -2.4880645362158074e-02  -5.2726036275147700e-02  -7.7416062275013658e-02  -9.3900125937611600e-02  -9.3695962129789118e-02  -7.9100734647338619e-02  -5.3351480784463071e-02  -1.8413286245015963e-02  1.8064302989324692e-02  4.8872250770517447e-02  7.7162254929159776e-02  9.3845874959524261e-02  9.8737564277308204e-02  9.2293919186040976e-02  7.5037957654125839e-02  4.9822521631610092e-02  2.0336047394293479e-02  -8.6060675550553873e-03  -3.1468480812345767e-02  -4.7515766766953231e-02  -4.8930336598976693e-02  -3.5940845863653273e-02  -9.0066153080212655e-03  3.1466458334702102e-02  7.4141163782915978e-02  1.1494367096294750e-01  1.4902017218274186e-01  1.6694815201870050e-01  1.6999384253573402e-01  1.5448830834914529e-01  1.2403604724883793e-01  7.9159255461917738e-02  2.7864002709582166e-02  -1.3608414353338429e-02  -3.7039115806329320e-02  -3.5132601060507189e-02  -1.1330152412474625e-02  2.1229412646694881e-02  5.9870009923350259e-02  9.7033065950468095e-02  1.3077403671023735e-01  1.6335136782005161e-01  1.9090557241809425e-01  2.1297273740014044e-01  2.2363695493194874e-01  2.2476496727985990e-01  2.0782558414962651e-01  1.7792207609593472e-01  1.3893828087164187e-01  9.9474635704746461e-02  7.3101091151908021e-02  6.0828947339008788e-02  5.8752812409037701e-02  6.1081174334335540e-02  6.3308711899181136e-02  6.6694220909749288e-02  7.7773005680443888e-02  1.4797106711610045e-01  1.9673850659365991e-01  2.5128813181182513e-01  2.8823713416278612e-01  3.1037929583232904e-01  3.0665806551853653e-01  2.8951366640615017e-01  2.5232944937490009e-01  2.0621009250791431e-01  1.5541847796701644e-01  1.0567136286305655e-01  5.7530279958515382e-02  1.8998520098696490e-02  -1.1462494403404402e-02  -3.5328356719933299e-02  -5.0362589913483545e-02  -5.9168306825992743e-02  -6.1004264136175254e-02  -5.6490397875533151e-02  -4.5666222160391283e-02  -2.9046207035903871e-02  -6.3059003143251472e-03  2.2708306579493315e-02  5.5597661578716075e-02  9.3397615317218616e-02  1.3376303579269988e-01  1.7465017572346031e-01  2.1509666950435874e-01  2.5320554512955001e-01  2.8806606136730395e-01  3.1773612663754119e-01  3.4346546319876481e-01  3.6381412165535076e-01  3.7950918754247853e-01  3.9187972888746886e-01  4.0046173754967929e-01  4.0687192779083259e-01  4.1101527985174396e-01  4.1377626196923639e-01  4.1541039260089191e-01  4.1634237604547764e-01  4.1684195154999348e-01  4.1775174339446708e-01  4.2126811634450601e-01  4.2863122709446255e-01  4.4079135716200363e-01  4.5867660076977568e-01  4.8245509495603428e-01  5.1210390395768024e-01  5.4712646555492761e-01  5.8672765782921255e-01  6.2883575144764448e-01  6.7191447189864062e-01  7.1309020814341695e-01  7.4946936470188086e-01  7.7930730522854574e-01  8.0085423596342953e-01  8.0981491903282743e-01  8.0893438202464485e-01  7.9735861457844670e-01  7.7646302649080601e-01  7.4959135795008569e-01  7.1742880935178999e-01  6.8399802805242327e-01  6.5058475487573353e-01  6.1999551351869586e-01  5.9309184488382549e-01  5.7106000023904768e-01  5.5415168959542371e-01  5.4225127254496153e-01  5.3517618938134903e-01  5.3133124221118588e-01  5.3040540628445054e-01  1.8378447942074816e-01  1.8161631340866316e-01  1.7206703022797148e-01  1.5543419215279045e-01  1.0253777985310376e-01  2.5951663720696783e-02  -5.7885006431866733e-02  -9.4039668563516338e-02  -7.4150921384597626e-02  -2.6409684726040838e-02  2.3556289913841382e-02  5.4064615986089644e-02  6.3986079471198734e-02  7.4865995108286856e-02  8.8307896378114023e-02  1.0209926889587165e-01  -9.7177558516094886e-02  -4.9073140295159898e-02  -2.2997633059125236e-02  -2.0663840806247582e-02  -8.9117168467088947e-02  2.5426576890050998e-02  -1.2735735668148705e-03  6.9255646540097193e-02  -6.4571490562815081e-02  -5.1871925445744059e-02  4.6288947869939860e-02  -2.3390156184518196e-01  2.1676822797434067e-01  -1.8704110797737969e-01  1.9462111251194618e-02  2.3142080188967673e-01  1.2354293270234480e-01  4.2407935802263957e-02  1.5749696479638020e-01  3.0032262159632991e-02  -2.6369628148331201e-02  -8.9130970182111871e-02  9.8998487981546535e-02  1.6401871325200032e-01  1.1177538433852446e-02  5.2315206841646082e-02  2.1539562314338145e-01  -1.1103378307245342e-01  6.6285367868673672e-02  -6.6404842397942088e-02  -1.2429590630943653e-01  1.9788009624578615e-01  1.6955645679919851e-01  1.8197725848138172e-01  5.6671320085980921e-02  -1.0483773526802639e-01  -3.6573347402443737e-02  -1.3990356665027590e-01  -1.9651128232094691e-02  -4.4610913062314246e-02  -3.6264592084774762e-02  6.6045618735039394e-03  -3.7171256172916136e-03  -7.5643007183841038e-02  -9.5878841333526310e-02  -1.6003993829796950e-01  -1.1302870461655412e-01  7.8585409052776500e-02  2.6632627591381813e-01  -1.0612781147468948e-01  4.8285348250257383e-02  9.4766004121056166e-02  1.3850710919527021e-01  7.0981564753051798e-02  6.5431620051433562e-02  1.4883274910451003e-01  1.1953848483360374e-01  -1.0244986627539043e-01  2.3565010041088300e-01  7.8993358039618627e-02  3.8117640482816753e-02  1.1015859814051628e-01  5.2436290614933295e-02  1.0158385465392743e-01  3.3505670027634334e-02  -5.6580011312713251e-02  6.3842102691986757e-02  -1.2465575134254668e-01  4.3032579649578774e-02  -8.8609781283983488e-02  3.2674002995826117e-02  -1.5068179399611295e-01  2.0923817571010728e-01  7.4592723838745323e-02  -1.3088439736167493e-01  2.6119096170651684e-01  -5.0684956973680910e-02  2.2419333284150782e-02  1.4610311116521238e-01  -4.3043801744613641e-02  -1.5134594864774600e-01  1.1547094021525428e-02  1.5267008914029051e-01  2.2440410564411420e-01  -1.0412454203528573e-01  -1.1069957647903195e-01  1.1680867042570743e-01  1.1745043414148432e-01  -1.3557528051304788e-02  1.1206006547546539e-01  8.0835337123238232e-02  -1.0815649193717469e-01  -3.5477339998308335e-02  1.0752405653099210e-01  6.5712925796519231e-02  7.6354541966196274e-02  2.3745779448471832e-01  -1.3431735805751719e-02  -1.1607360629616308e-01  7.6646274112801196e-03  1.2981075463163716e-01  5.3219494460580268e-02  5.9568445576338169e-02  -5.0908935353835574e-02  -7.9971149167116923e-02  2.8078033369522384e-02  -2.4752896568038985e-01  -1.3469884528092887e-01  -4.3504322492450814e-04  1.2106080003598632e-01  -6.8828506166069114e-02  -6.0170115051951913e-03  -1.0444972226041951e-01  1.5313677843080206e-01  -8.1830341714175803e-03  1.3912803076415897e-01  -2.9720795947604278e-02  -6.0066615516990302e-02  1.1634009541175844e-02  -1.0515638906294840e-01  1.9413673522014863e-01  -3.9262582432474061e-02  1.0610015939160281e-01  5.7734063943428379e-02  -3.5244981623700725e-02  -1.9428873432035518e-02  1.7048884833652189e-01  1.3046788737962859e-02  1.8576514202439176e-01  -4.6287382611228728e-03  9.4490585215941669e-02  -4.6098574864440146e-03  -1.6126211949923167e-01  8.8508545775464964e-02  1.0004614169964487e-01  -2.0586275050676076e-02  -3.6491751312978618e-02  -5.3217926505967801e-02  1.8727648212591011e-01  -9.0047547005586398e-02  3.0289790203350465e-02  2.4484684529968134e-01  7.0550841236954320e-02  6.2329765425927094e-02  -1.4871779474416752e-01  1.8543920996747260e-01  9.9594423720397007e-02  -7.0423237953598561e-02  -1.1834317310016923e-01  1.9194199796490310e-01  -1.6971690347303087e-01  1.1533686969125319e-01  6.5616330257064676e-02  2.5094273476579637e-02  7.0561079624617412e-02  1.5824707756535686e-01  1.4847356689539265e-01  2.6630192824965201e-02  8.4428755481040535e-02  1.1709201308750249e-01  2.9515279137352482e-02  -2.9318078251834401e-02  1.8278486430506358e-01  4.4030142014737528e-03  4.0358592091548566e-02  2.1073478047980809e-01  -9.1564337340371504e-02  -2.1241966664906878e-01  2.4922693323565806e-01  1.0047649762456586e-01  1.6333421058419970e-01  1.0373531102807015e-02  1.1778864711649319e-01  -5.3861918781828576e-02  5.6860609050447972e-02  -9.2126849324962283e-03  -5.2998179098367452e-02  -7.2424911347989729e-02  1.6292421367612747e-02  9.8023836547016602e-02  -7.3626691261308705e-02  -1.3648859573404798e-01  2.6646212524601148e-01  8.5503560490326286e-02  -1.1956987286623758e-01  2.3210705508101742e-01  -4.5414322339120010e-02  5.7772910638740675e-02  4.6812065651993605e-02  -2.3579443465614653e-02  -1.6149691598419172e-01  -2.1536991105655851e-01  -1.0574876376001384e-01  -2.0334127624193364e-02  1.6569080748799167e-01  4.1924339128964323e-02  3.4048332754866788e-02  -6.8542603477624350e-02  -5.0320224250516202e-02  -1.8878332845339160e-01  6.8182175593320363e-02  6.0995556561637361e-02  7.8348697338189166e-03  -2.1074755929484040e-01  -1.8548615497149000e-02  -1.0788193410610944e-02  -7.7383006679973942e-02  -1.0855415426565987e-01  -5.3724253672127048e-02  2.3824079695091752e-01  3.1565359061645606e-02  -5.6663803823805245e-02  -1.6913600727882633e-02  2.7822993727354205e-02  1.2316191685555096e-01  2.6678030247768630e-01  1.1694520795592019e-01  -1.6794622394672126e-01  4.1786331685243129e-02  -4.1499905177900476e-02  8.2695125329163260e-02  -1.6359883093321928e-01  -9.0249035350654386e-02  3.4450042918267067e-02  2.5749860203874364e-01  7.6712906226349652e-03  9.3873762570314864e-02  -1.3790088628244351e-02  -5.1506159079955212e-02  2.6093591524844123e-01  -3.2779891473663877e-02  1.0941174987793754e-01  8.1962626729631428e-03  -1.2536733316366200e-01  6.7078722192444137e-02  2.3292046510388387e-01  1.0354262051512211e-01  1.8237312083305302e-01  8.0622980228637384e-02  -1.3453630070676709e-01  3.8449298375519012e-02  1.2459533952416797e-01  1.4815151607416716e-01  1.5810470166498392e-01  1.0741484703719679e-02  -8.2825390177253058e-02  -7.3873616188870700e-02  1.1064285599459062e-01  1.6258739207963074e-01  9.7280880000269201e-02  3.2588251934085620e-02  -1.1544429910213903e-01  6.1024312024504736e-02  -1.3947448099047943e-01  -4.8417900043840466e-02  -6.7712538121046079e-02  -2.5223754177572895e-02  1.5271592777034457e-01  2.1820954345312418e-01  -8.8263059335015590e-02  1.3621589666140957e-01  -7.2112059413249330e-02  6.1505766782659808e-02  1.9723680705791835e-01  -9.1021937336528871e-02  9.0403278729311295e-02  2.8553928185635537e-03  8.7229858658031859e-02  6.0305423201174713e-02  1.6463386728457163e-02  4.4481784815761476e-02  1.3552440438567193e-01  2.2751923927696957e-01  -2.3741193733427925e-03  -9.9932993745638091e-02  6.1355094534056201e-02  -1.0082327425050883e-01  6.3419695010169141e-02  6.8374925998614014e-02  -1.6379104391847218e-01  4.3989388298178736e-02  8.7150762561781059e-02  -2.0120288271835529e-01  -4.7239126447651311e-02  -5.0328160079708521e-02  4.5402995489718941e-02  2.3504807416072812e-01  4.7498835968395846e-02  1.4446196847965087e-01  -3.2512165481419761e-02  -4.0597624726947064e-02  1.1384985939371986e-03  1.0531691957256874e-01  1.2169071730431653e-01  -1.9545944696984360e-01  -4.9403810366432767e-03  -6.6137095358456263e-03  -6.7077897341232609e-02  1.4379182519355882e-01  3.7228695035714500e-02  1.2172513862721786e-01  -5.0453248386039755e-02  -5.2890367735137632e-02  9.7141110273639975e-02  5.0936042608193614e-02  2.2401442829460175e-02  -1.1771445237473907e-01  -4.8641623103928645e-02  1.4950250357774922e-03  5.7113865585499607e-02  4.9837205360653829e-02  3.1361339820077327e-02  -1.2597660002536704e-01  1.5159419199375945e-01  -4.9420453093594149e-02  1.6382454985026795e-01  -7.7994727966477384e-02  2.9818757894432661e-02  -5.2774725684194661e-02  1.7807719883145740e-01  2.3404884455767974e-01  1.8463903879731611e-01  -1.0904473274907343e-02  2.1643786825461322e-01  2.4813542791514132e-01  -3.0995352723583811e-02  1.2037539659599834e-01  1.7091136986404573e-01  2.5125545918770076e-01  4.5239459877621839e-02  -1.1729964877964255e-01  -6.3476592601672543e-02  2.2205019126909026e-01  1.2931926955142020e-01  -4.8228032961556644e-02  1.3883934074605483e-01  -2.0018354567065211e-01  3.9406705725715474e-02  1.6806692960157479e-01  -6.4355257921038828e-02  -1.0393460155341838e-01  2.2102746759515818e-02  2.6334689110369590e-02  -5.2902213880050196e-02  2.2611420648382830e-01  1.4382894485466025e-01  1.8979316478604690e-02  1.1511298415444703e-01  -9.2419814452285032e-02  -8.2395031821889342e-02  -1.6718896101179173e-02  -8.1794101497508334e-02  1.9865322970379129e-01  -4.5633440509487040e-02  -5.0940566713753348e-02  -1.5692362836851065e-01  1.6265878327494587e-01  -7.2509314146132930e-02  6.9323289925003181e-02  -1.3418821061949626e-01  8.2012604196517996e-03  -2.9310806395699347e-02  -1.1006232689784802e-01  1.7932285920488240e-02  2.1137248740660644e-01  8.1938061638500398e-02  -1.4859978043741701e-01  1.3393046313595680e-01  -2.0489457031506921e-02  2.2514416227977768e-01  -7.8503397919989400e-03  1.2444605390840682e-01  -1.2862462707298039e-02  1.4201346489157896e-01  -2.1679159079509125e-02  3.5829878615167274e-02  1.0374508240201749e-01  1.9794636306923564e-02  1.0519191453616775e-01  1.0851654107386817e-01  7.4977510762671590e-02  5.8021418724452302e-02  -8.1717055692934852e-03  -1.3121048552316439e-01  4.0853633774539634e-02  4.0826595699451219e-02  8.4204470063556067e-02  -5.2603875047147683e-02  5.9734418943253549e-02  -1.1343417864876135e-01  -6.0955329815485272e-02  -5.4922374928696213e-02  6.6608145628031953e-02  -7.0960086573348805e-02  1.3707793810131158e-01  -4.7121438849438466e-02  1.6589779662688753e-01  -5.4155176704854674e-02  -9.0395735892192117e-02  -1.8709538014053600e-02  -1.2702314405094270e-01  -1.6261095131408373e-01  -9.5911126437655363e-03  -1.5062148022683164e-01  -1.6501308541198637e-01  1.3354773254795729e-01  1.1464947686397581e-01  -7.0966092310993462e-02  2.6809951736598142e-02  1.8177048390432474e-01  4.6521282007596684e-02  -5.1570377759603596e-02  -1.7955214001631767e-01  2.6480560790415376e-02  1.6053433154411920e-03  -2.2579095271476373e-02  2.3755783389445045e-01  -5.4605167219895494e-02  -1.3102759691085455e-01  2.3006668436458116e-01  2.5131324601978955e-01  -3.7195510576050382