<?xml version="1.0"?>
<VTKFile type="UnstructuredGrid"  version="0.1"  >
<UnstructuredGrid>
<Piece  NumberOfPoints="4826" NumberOfCells="9274">
<Points>
<DataArray  type="Float64"  NumberOfComponents="3"  format="ascii">0.004357787137616029 0.04980973490456689 0  2.448294430073374e-13 0.05 0  -0.004357787137128233 0.04980973490460956 0  -0.004357787137605706 -0.04980973490456778 0  -2.344882876518267e-13 -0.05 0  0.004357787137138513 -0.04980973490460866 0  -0.2 -0.2 0  0.55 -0.2 0  2 -0.2 0  2 0.21 0  0.55 0.21 0  -0.2 0.21 0  0.002180969368511386 0.0499524110790822 0  -0.002180969368010819 0.04995241107910407 0  -0.002180969368502513 -0.04995241107908259 0  0.002180969368021486 -0.0499524110791036 0  -0.006814597157868607 0.04953343583455493 0  -0.009254746151924908 0.04913603233537922 0  -0.01167226819248128 0.04861849601995923 0  -0.01406125267347753 0.04798209221420657 0  -0.01641585876037609 0.04722837686348521 0  -0.01873032967049142 0.04635919272846228 0  -0.02099900674774951 0.04537666487973717 0  -0.0232163432975249 0.04428319550226104 0  -0.0253769181477669 0.04308145802223435 0  -0.02747544890327456 0.04177439057082161 0  -0.02950680486062692 0.04036518880070902 0  -0.03146601955223609 0.03885729807305569 0  -0.0333483028888871 0.03725440503391573 0  -0.03514905287103829 0.03556042860074884 0  -0.03686386684027007 0.03377951038104073 0  -0.0384885522433417 0.0319160045464898 0  -0.04001913688258778 0.02997446718746979 0  -0.04145187862754741 0.0279596451738408 0  -0.04278327456411638 0.0258764645493049 0  -0.04401006955882648 0.02373001848771415 0  -0.04512926421732728 0.02152555484076227 0  -0.04613812221762188 0.01926846330748221 0  -0.04703417700009761 0.01696426225697686 0  -0.04781523779803292 0.0146185852365256 0  -0.04847939499380464 0.01223716719811699 0  -0.04902502478771633 0.009825830477053876 0  -0.04945079316803359 0.007390470556897103 0  -0.04975565917250895 0.004937041655599784 0  -0.04993887743343513 0.002471542168028815 0  -0.05000000000000002 4.319617580295088e-13 0  -0.04993887743347691 -0.002471542167184487 0  -0.04975565917259078 -0.004937041654775128 0  -0.0494507931681559 -0.007390470556078771 0  -0.04902502478787634 -0.00982583047625548 0  -0.048479394994003 -0.01223716719733118 0  -0.04781523779827011 -0.01461858523574979 0  -0.04703417700037211 -0.01696426225621582 0  -0.04613812221792003 -0.01926846330676828 0  -0.04512926421765873 -0.0215255548400674 0  -0.0440100695591652 -0.02373001848708596 0  -0.04278327456447995 -0.0258764645487038 0  -0.04145187862791943 -0.02795964517328926 0  -0.04001913688296869 -0.02997446718696123 0  -0.03848855224374843 -0.03191600454599933 0  -0.03686386684070041 -0.03377951038057109 0  -0.03514905287149575 -0.03556042860029668 0  -0.03334830288936536 -0.03725440503348761 0  -0.03146601955271191 -0.03885729807267038 0  -0.02950680486109357 -0.0403651888003679 0  -0.02747544890375341 -0.04177439057050667 0  -0.02537691814821718 -0.0430814580219691 0  -0.02321634329799415 -0.04428319550201502 0  -0.02099900674823039 -0.04537666487951462 0  -0.01873032967097447 -0.04635919272826711 0  -0.0164158587608675 -0.0472283768633144 0  -0.01406125267397827 -0.04798209221405982 0  -0.01167226819300015 -0.04861849601983465 0  -0.00925474615244812 -0.04913603233528067 0  -0.006814597158347743 -0.04953343583448901 0  0.006814597157865879 -0.04953343583455529 0  0.009254746151927097 -0.0491360323353788 0  0.01167226819248615 -0.04861849601995805 0  0.01406125267347329 -0.04798209221420779 0  0.01641585876037412 -0.04722837686348589 0  0.01873032967049753 -0.04635919272845981 0  0.02099900674775168 -0.04537666487973616 0  0.02321634329751479 -0.04428319550226633 0  0.02537691814775486 -0.04308145802224143 0  0.02747544890326525 -0.04177439057082774 0  0.02950680486061762 -0.04036518880071581 0  0.03146601955222702 -0.03885729807306303 0  0.0333483028888813 -0.03725440503392092 0  0.03514905287103634 -0.03556042860075076 0  0.03686386684026893 -0.03377951038104196 0  0.03848855224333972 -0.03191600454649218 0  0.04001913688258468 -0.02997446718747393 0  0.04145187862754592 -0.02795964517384301 0  0.04278327456411439 -0.02587646454930818 0  0.04401006955882308 -0.02373001848772046 0  0.04512926421732501 -0.02152555484076704 0  0.04613812221761816 -0.01926846330749109 0  0.04703417700009521 -0.01696426225698355 0  0.04781523779803072 -0.01461858523653281 0  0.04847939499380377 -0.01223716719812044 0  0.04902502478771547 -0.009825830477058137 0  0.04945079316803235 -0.007390470556905473 0  0.04975565917250727 -0.004937041655616693 0  0.0499388774334346 -0.002471542168039619 0  0.05 -4.403257272689309e-13 0  0.04993887743347755 0.002471542167171875 0  0.04975565917259197 0.004937041654763091 0  0.04945079316815711 0.007390470556070629 0  0.04902502478787914 0.009825830476241509 0  0.04847939499400326 0.01223716719733013 0  0.04781523779826526 0.01461858523576567 0  0.0470341770003617 0.01696426225624468 0  0.04613812221791593 0.01926846330677807 0  0.04512926421764892 0.02152555484008794 0  0.04401006955917259 0.02373001848707224 0  0.04278327456448917 0.02587646454868855 0  0.04145187862794129 0.02795964517325684 0  0.04001913688300011 0.02997446718691929 0  0.03848855224377164 0.03191600454597132 0  0.03686386684071396 0.03377951038055631 0  0.03514905287149344 0.03556042860029895 0  0.03334830288935025 0.03725440503350112 0  0.03146601955270811 0.03885729807267346 0  0.0295068048611069 0.04036518880035816 0  0.02747544890376348 0.04177439057050004 0  0.02537691814825449 0.04308145802194713 0  0.02321634329801946 0.04428319550200175 0  0.02099900674825754 0.04537666487950205 0  0.01873032967100249 0.04635919272825579 0  0.0164158587608822 0.04722837686330929 0  0.01406125267398022 0.04798209221405924 0  0.01167226819298624 0.04861849601983799 0  0.009254746152419701 0.04913603233528602 0  0.006814597158349477 0.04953343583448876 0  -0.187519667561546 -0.2 0  -0.1748316574821168 -0.2 0  -0.1619325192212862 -0.2 0  -0.148818726846035 -0.2 0  -0.1354867192353635 -0.2 0  -0.1219328603917423 -0.2 0  -0.1081534592978099 -0.2 0  -0.09414476589796635 -0.2 0  -0.07990295884356099 -0.2 0  -0.06542416303692469 -0.2 0  -0.05070442887227664 -0.2 0  -0.03573975841838681 -0.2 0  -0.02052606515274366 -0.2 0  -0.005059208927244263 -0.2 0  0.01066502121897589 -0.2 0  0.0266509074223695 -0.2 0  0.04290280916834216 -0.2 0  0.05942514657702952 -0.2 0  0.0762224259839136 -0.2 0  0.09329921648059353 -0.2 0  0.110660175036538 -0.2 0  0.1283100227830172 -0.2 0  0.1462535753141169 -0.2 0  0.1644957199166657 -0.2 0  0.1830414159977267 -0.2 0  0.2018957233573105 -0.2 0  0.2210637763821503 -0.2 0  0.2405507887204602 -0.2 0  0.260362079066015 -0.2 0  0.2805030358280229 -0.2 0  0.3009791451426284 -0.2 0  0.3217959904068706 -0.2 0  0.3429592343744705 -0.2 0  0.3644746437000989 -0.2 0  0.3863480795092348 -0.2 0  0.4085854991020529 -0.2 0  0.4311929577241948 -0.2 0  0.4541766164908302 -0.2 0  0.4775427321916551 -0.2 0  0.5012976684604897 -0.2 0  0.5254479006641548 -0.2 0  0.5749999999999358 -0.2 0  0.5999999999998969 -0.2 0  0.6249999999998155 -0.2 0  0.6499999999998081 -0.2 0  0.6749999999997656 -0.2 0  0.6999999999997664 -0.2 0  0.7249999999997357 -0.2 0  0.7499999999996745 -0.2 0  0.7749999999995796 -0.2 0  0.7999999999995281 -0.2 0  0.8249999999994608 -0.2 0  0.8499999999994138 -0.2 0  0.8749999999993301 -0.2 0  0.8999999999992546 -0.2 0  0.9249999999991836 -0.2 0  0.9499999999990955 -0.2 0  0.9749999999990373 -0.2 0  0.9999999999989423 -0.2 0  1.024999999998847 -0.2 0  1.049999999998752 -0.2 0  1.074999999998672 -0.2 0  1.099999999998649 -0.2 0  1.124999999998554 -0.2 0  1.149999999998545 -0.2 0  1.174999999998451 -0.2 0  1.199999999998416 -0.2 0  1.224999999998348 -0.2 0  1.249999999998288 -0.2 0  1.274999999998288 -0.2 0  1.299999999998246 -0.2 0  1.324999999998369 -0.2 0  1.349999999998394 -0.2 0  1.37499999999845 -0.2 0  1.399999999998551 -0.2 0  1.424999999998531 -0.2 0  1.449999999998684 -0.2 0  1.474999999998642 -0.2 0  1.499999999998804 -0.2 0  1.524999999998773 -0.2 0  1.549999999998885 -0.2 0  1.574999999999013 -0.2 0  1.599999999999079 -0.2 0  1.624999999999119 -0.2 0  1.649999999999211 -0.2 0  1.674999999999224 -0.2 0  1.699999999999321 -0.2 0  1.724999999999342 -0.2 0  1.749999999999427 -0.2 0  1.774999999999474 -0.2 0  1.799999999999533 -0.2 0  1.824999999999605 -0.2 0  1.849999999999639 -0.2 0  1.874999999999735 -0.2 0  1.899999999999745 -0.2 0  1.924999999999841 -0.2 0  1.949999999999869 -0.2 0  1.974999999999947 -0.2 0  2 -0.1758823529412649 0  2 -0.1517647058824698 0  2 -0.12764705882371 0  2 -0.103529411764951 0  2 -0.07941176470620959 0  2 -0.05529411764745706 0  2 -0.03117647058865336 0  2 -0.007058823529918185 0  2 0.01705882352889865 0  2 0.04117647058779714 0  2 0.06529411764668486 0  2 0.08941176470558332 0  2 0.1135294117644398 0  2 0.137647058823337 0  2 0.1617647058822356 0  2 0.185882352941134 0  1.975000000000015 0.21 0  1.950000000000055 0.21 0  1.925000000000061 0.21 0  1.90000000000011 0.21 0  1.875000000000116 0.21 0  1.850000000000166 0.21 0  1.825000000000172 0.21 0  1.800000000000206 0.21 0  1.775000000000227 0.21 0  1.750000000000322 0.21 0  1.725000000000369 0.21 0  1.700000000000375 0.21 0  1.675000000000454 0.21 0  1.650000000000517 0.21 0  1.62500000000057 0.21 0  1.600000000000658 0.21 0  1.575000000000687 0.21 0  1.550000000000789 0.21 0  1.525000000000806 0.21 0  1.500000000000905 0.21 0  1.475000000001007 0.21 0  1.450000000001109 0.21 0  1.42500000000121 0.21 0  1.400000000001312 0.21 0  1.375000000001406 0.21 0  1.350000000001428 0.21 0  1.32500000000153 0.21 0  1.300000000001554 0.21 0  1.275000000001647 0.21 0  1.250000000001522 0.21 0  1.225000000001572 0.21 0  1.200000000001437 0.21 0  1.175000000001446 0.21 0  1.15000000000137 0.21 0  1.125000000001303 0.21 0  1.100000000001302 0.21 0  1.075000000001145 0.21 0  1.050000000001136 0.21 0  1.025000000000966 0.21 0  1.000000000000931 0.21 0  0.9750000000008732 0.21 0  0.9500000000008135 0.21
[...]
<PointData  Scalars="pressure"> 
<DataArray  type="Float64"  Name="pressure"  format="ascii">-8.1292804387924977e-01  -7.4848729469199038e-01  -8.4569554549222914e-01  -1.0290110367412717e+00  -1.0206174735816920e+00  -8.3151010828353022e-01  4.6085477457671364e-01  7.5832285968041133e-02  0.0000000000000000e+00  0.0000000000000000e+00  2.6851852863149356e-01  4.8444313452254073e-01  -7.6995684404729703e-01  -7.6559657415173721e-01  -1.0647954373139334e+00  -9.3747201289759374e-01  -8.6215179144216680e-01  -8.8251472287641097e-01  -8.8959716530446920e-01  -8.8420154901794001e-01  -8.6489259624308357e-01  -8.2799772131148264e-01  -7.7639005505607150e-01  -7.1045839198382998e-01  -6.2587106400443948e-01  -5.2352954824295261e-01  -4.0631685872701889e-01  -2.7896468188863882e-01  -1.3906813255990150e-01  1.7328428282828452e-02  1.7679083352219391e-01  3.4724765750543007e-01  5.1883895816963044e-01  6.8883733180613860e-01  8.6474902458448055e-01  1.0280010029083662e+00  1.1925297456228721e+00  1.3433702837149610e+00  1.4824480611895647e+00  1.6100616248692527e+00  1.7192286438572673e+00  1.8104487450204136e+00  1.8835455471734914e+00  1.9375042416560710e+00  1.9659273655410445e+00  1.9744487268558004e+00  1.9611387594285852e+00  1.9247272856803865e+00  1.8678468693856638e+00  1.7893707087592456e+00  1.6930807654207407e+00  1.5809059366527280e+00  1.4491905667075493e+00  1.3079003361364925e+00  1.1520644427610047e+00  9.8684114153853475e-01  8.1662465056407085e-01  6.4092601099289748e-01  4.6724974827116039e-01  2.9365344870338567e-01  1.1800699858590137e-01  -3.9522620308253403e-02  -2.0160671417017575e-01  -3.4621087587585792e-01  -4.8070081783453489e-01  -6.0398852204835318e-01  -7.1404815919330089e-01  -8.0528936389206018e-01  -8.8750347776984928e-01  -9.4749251609743967e-01  -9.9871129841391004e-01  -1.0308621013498318e+00  -1.0512313078502382e+00  -1.0582727764692752e+00  -1.0543818944886398e+00  -8.1686440605606725e-01  -7.8388114979572998e-01  -7.4973141017833034e-01  -7.1620518820404988e-01  -6.8539597076002734e-01  -6.5723454512416646e-01  -6.3201345793224983e-01  -6.0977100814880969e-01  -5.9033374745699319e-01  -5.7382591205172206e-01  -5.5959114134186905e-01  -5.4809174188919674e-01  -5.3856160879860648e-01  -5.3043293069084629e-01  -5.2335693601002664e-01  -5.1679201284402887e-01  -5.1059927162998309e-01  -5.0398564674333091e-01  -4.9681706645528323e-01  -4.8923643000721578e-01  -4.8054019672307319e-01  -4.7121748635813010e-01  -4.6129620308841968e-01  -4.5078609481804810e-01  -4.4042488071280089e-01  -4.2993333402651018e-01  -4.2011208805456934e-01  -4.1083886187945978e-01  -4.0256760843856232e-01  -3.9543277759625617e-01  -3.8941766471267875e-01  -3.8448599510462195e-01  -3.8079393600880895e-01  -3.7775580664786906e-01  -3.7569283283793403e-01  -3.7405414120208552e-01  -3.7303242893561639e-01  -3.7223488564042767e-01  -3.7201457819945122e-01  -3.7215864510421531e-01  -3.7280701736641392e-01  -3.7447427716913745e-01  -3.7712013848198955e-01  -3.8098969305916519e-01  -3.8651380995718254e-01  -3.9397143410109514e-01  -4.0331505605100187e-01  -4.1497782859187982e-01  -4.2861149167364304e-01  -4.4499124984753990e-01  -4.6361197353436667e-01  -4.8548899538285445e-01  -5.1028688575135772e-01  -5.3874054900198165e-01  -5.7068218031840823e-01  -6.0635450900707821e-01  -6.4537535891937370e-01  -6.8817948731428846e-01  -7.3231644197656987e-01  4.6020980026006408e-01  4.5920165107685013e-01  4.5677978337259795e-01  4.5312610912159190e-01  4.4731400885162664e-01  4.3901151138660621e-01  4.2730683190813318e-01  4.1189856701219452e-01  3.9167495090370469e-01  3.6662914155547288e-01  3.3636693656023414e-01  3.0005463294782880e-01  2.6039782892889102e-01  2.1613704536801867e-01  1.7093971875237560e-01  1.2688455314166130e-01  8.5693734555610551e-02  4.8418602780366124e-02  1.9444542450983031e-02  -2.9154352380482036e-03  -1.5120622827210543e-02  -1.8278984677589531e-02  -1.1570826983423158e-02  2.1199544113904636e-03  2.5326990014598899e-02  5.5320983764178433e-02  8.8558096087095681e-02  1.2504937662531693e-01  1.5873207362251723e-01  1.8654671820349142e-01  2.0722134923839228e-01  2.1465466406689787e-01  2.0951967885459657e-01  1.8551736573009472e-01  1.4915873149529649e-01  1.0116402798763649e-01  6.0980760978620686e-02  3.1118395041165155e-02  2.5271735227947754e-02  3.0967749800234885e-02  5.2459086655088263e-02  9.8386214977609715e-02  1.2144238461893207e-01  1.5256847472569826e-01  1.8374645077706275e-01  2.1249258080067041e-01  2.3223289446037093e-01  2.4164006985005318e-01  2.3967359416375952e-01  2.2954016757518150e-01  2.1142893432474050e-01  1.8800157044527455e-01  1.6046947163635733e-01  1.2565323530203601e-01  8.7142764961232716e-02  4.9760017529618242e-02  1.7232613543095979e-02  1.3550098676881132e-04  8.1987611641272575e-03  4.4746753313627638e-02  9.9299823841648135e-02  1.5591348435303939e-01  2.0559531118788574e-01  2.3216091527545368e-01  2.4038285509598808e-01  2.2769539847431788e-01  1.9798725008812740e-01  1.5673654679930499e-01  1.0459636601795712e-01  4.9186455420493401e-02  -3.6034864986738209e-03  -3.7693280870930219e-02  -5.0351336698711155e-02  -3.9062027991825995e-02  -6.6721429727134973e-03  3.2123613622315195e-02  7.2716324188574308e-02  1.1085624302823691e-01  1.3550951528027491e-01  1.4727158794085990e-01  1.4668256574375499e-01  1.3080040729037895e-01  1.0478218554595624e-01  7.1325199823019977e-02  3.2256617099750445e-02  -5.7835240060706812e-03  -3.9011998062711543e-02  -6.0806167059186983e-02  -6.9794477006578426e-02  -6.5353759652472240e-02  -5.1290567082349137e-02  -3.2358166794059236e-02  -1.0136086670560400e-02  8.7487673480611886e-03  2.2652633309304750e-02  2.8557342588585992e-02  2.6150498687350011e-02  1.6085499904281274e-02  0.0000000000000000e+00  0.0000000000000000e+00  0.0000000000000000e+00  0.0000000000000000e+00  0.0000000000000000e+00  0.0000000000000000e+00  0.0000000000000000e+00  0.0000000000000000e+00  0.0000000000000000e+00  0.0000000000000000e+00  0.0000000000000000e+00  0.0000000000000000e+00  0.0000000000000000e+00  0.0000000000000000e+00  0.0000000000000000e+00  0.0000000000000000e+00  -1.2602735925300366e-02  -2.0596942496610128e-02  -1.8344757334290470e-02  -8.3460327167543587e-03  1.1216681636313524e-02  3.6458877181925087e-02  6.2177308910384942e-02  8.6463761719668145e-02  1.0453491112756624e-01  1.1116775666177341e-01  1.0954203742785995e-01  9.8516055174384748e-02  7.6705636910033057e-02  4.9893714959663771e-02  2.1397458389078746e-02  -7.3220699242452433e-03  -2.9682527741573837e-02  -4.3259404750655768e-02  -3.6151710969234065e-02  -1.6947641373146971e-02  1.9810868558454566e-02  6.5838619333174198e-02  1.1158868198008448e-01  1.5338561068366108e-01  1.8336626903415204e-01  1.9493933575265279e-01  1.9352075625848528e-01  1.7029877761894810e-01  1.3241524338569094e-01  7.8957581192881265e-02  2.6626831408326262e-02  -1.5954733983609262e-02  -3.4078416329924241e-02  -2.3750846963555106e-02  1.0949975536220640e-02  5.1770717181903153e-02  9.7168064392883738e-02  1.3754153987933793e-01  1.7429503029130838e-01  2.0546314785091915e-01  2.2733454648102644e-01  2.4020426817165250e-01  2.3626220637190651e-01  2.1578659603229502e-01  1.7434213698280462e-01  1.2581975027411701e-01  7.9822145042486831e-02  5.1698925217623752e-02  4.5200275238531956e-02  5.4410101105262364e-02  7.1329911654849726e-02  9.2275574149781769e-02  1.1209337201608320e-01  1.3389255486398105e-01  1.6073674114797665e-01  1.9652122383881870e-01  2.3350111495917941e-01  2.9387746745697263e-01  2.9678853770921709e-01  2.8203051189753497e-01  2.5104937891266726e-01  2.0617531966705954e-01  1.5242637251958774e-01  9.6260540580813667e-02  4.7074253529547236e-02  4.6675818644114318e-03  -2.2968302715951447e-02  -3.7102139151068469e-02  -4.0984080855781778e-02  -3.8206675812501457e-02  -3.0281841775097209e-02  -2.1130011463870384e-02  -1.1189951446419570e-02  -4.1894912640478275e-04  1.2553242717937035e-02  2.8206934765289089e-02  4.6981747804413124e-02  6.9601332367940250e-02  9.6157304016218137e-02  1.2714980876393220e-01  1.6077293088746086e-01  1.9776738266687935e-01  2.3621719189744564e-01  2.7428521999724786e-01  3.1130832086446136e-01  3.4524730826164196e-01  3.7581918455179136e-01  4.0130137770756524e-01  4.2299477144633812e-01  4.3991970372332490e-01  4.5280740859847118e-01  4.6290669347936131e-01  4.6993356994249436e-01  4.7524689022674643e-01  4.7878537610944066e-01  4.8124138361448071e-01  4.8278890130675695e-01  4.8373967759448422e-01  4.8430349859997318e-01  4.8512985946006554e-01  4.8828978474432394e-01  4.9491572640818354e-01  5.0587420079075074e-01  5.2198783356335299e-01  5.4338446959626074e-01  5.6994536280149433e-01  6.0113795026754202e-01  6.3609143580646521e-01  6.7272240106845804e-01  7.0951951353108844e-01  7.4362473126873174e-01  7.7222972538739121e-01  7.9376216162429891e-01  8.0659581033568195e-01  8.0663835335281819e-01  7.9690055678231042e-01  7.7671693446212020e-01  7.4766754948352632e-01  7.1321679489906598e-01  6.7425905877175063e-01  6.3479705634634653e-01  5.9625214831854834e-01  5.6134629511882872e-01  5.3095634074289499e-01  5.0618527166972627e-01  4.8725364902200563e-01  4.7394101611598521e-01  4.6602783449116919e-01  4.6174409790515419e-01  4.6072413580271881e-01  7.3361326815466033e-02  6.6855410982102376e-02  5.5359604382851903e-02  4.3894223389679680e-02  2.9314139684999997e-02  -1.1475134217073546e-02  -4.8833881899826979e-02  -4.5466007528362037e-02  -1.7383477239774113e-03  8.0536282581677401e-02  1.7462898377439043e-01  2.3949054887479482e-01  2.8817849697616038e-01  2.9662375504101551e-01  2.8618243695643342e-01  2.7390644488884613e-01  3.4685393091633085e-02  -5.3732268343169291e-02  -1.7756817801544957e-02  8.5315188136762515e-03  -3.4425861949774372e-02  2.1233191481609546e-02  -3.8070094605997605e-02  1.4679832998787640e-01  -1.9803188703363281e-01  1.3459235333778147e-01  1.4561561008517387e-01  -1.1122436733327265e-01  -1.4309377149098176e-01  -2.9634330242731807e-02  7.5623494535553490e-02  1.8467945413769027e-01  1.1879979693826100e-02  1.6896774544085519e-01  -1.5404215057041981e-01  1.6680943853311783e-01  -1.7679734654943458e-01  -1.2899890834638469e-01  1.2921474671325558e-01  7.8910709458660494e-02  -1.0400468762844327e-01  -9.6444313650495533e-03  2.6749144308945005e-01  4.1648744017668625e-02  -1.3443669499553954e-01  -2.8779399637716731e-02  3.6991687684688523e-02  1.6635131473492926e-01  2.5924342574606496e-01  2.7057403615535114e-01  -2.9081042981078279e-02  -4.5705775368142909e-02  -3.1727901971910236e-02  -2.3145558201135084e-02  -2.7764559743933739e-02  -3.2378327407800389e-02  9.5439904620872790e-02  -4.5312307530555991e-02  -2.9616715351492580e-02  6.2540930167010372e-02  3.4718699696023030e-02  -4.9331374570804290e-02  1.5832237599231472e-02  1.0847002895054113e-01  1.2287805917223459e-01  -4.3196273938344430e-02  1.5377494481264367e-01  4.4675403884505381e-02  1.7093526423874716e-01  -5.4102135589793918e-02  -6.4678653685028925e-02  1.0359296469376243e-02  8.1154811909912888e-02  -9.0427928048998560e-02  2.6237715971640790e-02  2.3567493412099361e-01  1.6054811771138616e-01  9.4241855030885988e-02  -7.7693295272020235e-02  -2.0000057112272825e-02  8.2601050713531007e-02  3.9389839013397321e-02  1.2928511496153591e-01  -1.6125307773697173e-01  -2.0490366064347151e-01  4.8782030252148383e-02  6.6551063426158047e-02  -8.7100046591613245e-02  -2.1322588781975862e-01  4.2638281995025763e-02  1.7211326629969260e-02  1.3447651216560813e-01  2.5486901440249388e-02  -3.0272772460703697e-02  1.9840760012822592e-01  -6.6843962118542682e-02  -1.8960163122896875e-01  1.4639189085403151e-01  5.9865557794266694e-02  2.4987416309774352e-01  -6.8801127705639148e-02  1.9891794547352907e-02  -1.3839180876920537e-02  2.1721180906570819e-01  -6.8353295702540812e-02  2.1541970616449463e-01  1.4300840499110351e-01  6.9574020110975840e-02  -9.5168453795731578e-02  2.7326035571504172e-02  1.2715404797405419e-01  1.0347679736164275e-01  1.9724665003417310e-01  -9.3042636931684269e-02  -7.1195896546386542e-02  5.4404624688389698e-02  2.3753740919380603e-01  1.4330481775377532e-01  1.1462744741980621e-02  1.4237405315635959e-01  -5.7831539812635932e-02  -9.2007055047569286e-02  -4.7525000266546906e-04  -2.5568923091185431e-02  1.4467212726717960e-01  1.0340869068346469e-01  -3.7531967058298310e-02  -1.1419857036865129e-02  -1.0284313447373473e-02  1.1585790658257752e-01  -8.2065111598442417e-02  2.4532040782225491e-02  -1.3328902988669861e-02  -1.2968002120428295e-02  -4.5420867241929015e-02  -2.8787886147273935e-02  2.5844459528586133e-01  -3.3375712945056139e-02  2.0634363037298160e-02  1.1773819225459578e-01  8.8665571454964842e-02  1.7282841039796937e-02  1.9965179868575636e-01  1.1495154909665133e-01  1.4532980312734592e-01  -1.6959238853123448e-01  -3.1344198427530107e-01  -3.5773973274335707e-03  -1.2405065907762028e-01  2.8641150031255291e-02  2.3331503026336389e-01  1.0882291212504633e-01  5.8348941994944989e-02  8.9513515022681775e-02  1.3634287693150005e-02  -6.0591686681523267e-02  2.0025578511528391e-01  7.1232221484556447e-03  5.2872146106271369e-02  -5.6555240336375198e-02  -5.8411245326261858e-02  2.4827198564215383e-01  -4.1921342629946137e-02  5.8162936890937232e-02  -1.4457591477680076e-01  -1.2943038852258898e-01  4.0276265369944310e-02  2.0794890951729408e-01  1.2430880113653172e-02  2.7784403233930346e-02  5.8068688735153938e-02  2.0131374477282574e-01  1.1149679966516440e-01  -9.6199879759015158e-02  -1.9849591660739985e-01  2.1412510552712363e-01  -3.4558477141002288e-03  6.8494670458245713e-02  2.5419066443471555e-01  1.2967065695922530e-02  6.6438844334169550e-02  2.6502065686245413e-01  -8.0078750016789602e-02  -1.2497216102781011e-01  1.8369809798016332e-01  -4.8936105226451365e-02  1.4907553282270572e-01  1.0377227284175373e-01  3.9583007184629954e-02  6.9888045765318915e-02  -2.9288332986202849e-02  -5.0517286394280242e-02  -1.2556092818392706e-01  -1.0710270944949447e-01  4.7138636569696919e-02  1.1096016295455310e-01  -1.8250632337966262e-02  -1.0366852126852162e-01  1.1862343326474303e-01  -6.6489778482060457e-03  4.1521868025366060e-02  1.0364500275481453e-01  -2.4319685375572071e-02  2.1625925816177705e-01  2.8469974772605548e-02  1.7997931507803478e-02  1.1879625341847245e-02  -3.2780540843458758e-02  -1.5879559241759655e-02  8.9913368181892592e-02  1.9939171353200913e-01  -2.1956155826921075e-02  -1.1412952288091642e-01  -5.6696640320057966e-02  1.1958800648011793e-01  -6.0218671983634557e-02  5.9681194835400568e-02  -4.8744567554212054e-02  7.1662845498669719e-02  -5.1783734005709625e-02  8.8841365686222792e-02  6.5009091562486757e-02  1.0036676519497441e-01  2.8264409063868328e-02  5.0418145730963253e-02  2.1405362866364608e-01  -2.7466417466221558e-02  1.4766064976908185e-02  -9.7254468826784707e-02  -5.8924326990649417e-03  -7.2151046388379284e-02  7.5864812194399639e-02  4.6105105617561239e-02  -6.3710176727806600e-02  1.1857907695477633e-01  1.6832843020051844e-01  1.9893702127585572e-01  -6.1611747251103743e-02  -1.2159896342541103e-01  -5.5988277101327012e-02  9.1325487074363013e-02  1.0493893127008139e-01  1.7202929326495742e-01  -1.4676916194113748e-01  -1.1671135681837300e-01  2.0786641000625344e-01  -7.2896057704532710e-02  2.6629610226319867e-02  2.2590647046234126e-02  -1.4029417842512848e-01  1.8381810460406775e-01  1.1551247593038835e-01  1.5621017459024894e-01  7.0065727216601675e-02  1.9410413668406870e-01  -8.2722335914195172e-02  9.4878621367912641e-02  1.7088256986782790e-02  2.3501408413352534e-01  -8.9626681792673066e-02  -2.1023631774008134e-01  -1.3971840059514134e-02  -5.4009158496214167e-03  1.2385945969919804e-01  1.8353572840643337e-01  -8.6691965701349419e-02  1.9638120575357870e-01  6.7190701494505871e-03  7.7132496673303436e-02  -2.4965112010437801e-02  2.2403052936320587e-02  -7.5419174893061273e-03  1.2573588982472178e-02  2.2084744602519180e-01  -4.8316586868299490e-02  -5.1352472600003155e-02  1.4583103867048988e-01  -2.8147695557032480e-02  1.8378547709347401e-01  4.8611841556932135e-02  4.4020055377600724e-02  -2.5773577224922267e-02  -1.3846302014520204e-01  3.2173500484915706e-02  1.5139167609633614e-01  1.3364611785026390e-01  1.9036846694167006e-01  3.1988937152066063e-02  2.3758181409137538e-01  2.8322011518631968e-02  -7.7764537070297679e-02  1.2089050345538957e-01  -1.2664696365530595e-01  1.1625916506122264e-01  1.8708338370643512e-01  -6.9849571882969128e-03  2.7356587139818984e-02  -1.7510147129724370e-02  -4.7862950865060913e-02  -1.1554113891460779e-01  -3.4975722136771831e-02  2.3183225751706135e-01  6.7799796225505818e-02  3.4221437186058329e-02  4.0359441231942773e-02  -4.7039165647247291e-02  7.1627598269205645e-02  2.3278460704243251e-02  6.8297040968917866e-02  2.3841426249914077e-01  1.1992209599877388e-02  -6.6988419735688975e-02  7.9296887679062650e-02  6.2513633609975583e-02  -2.0686395906028479e-01  3.3059294201704718e-02  1.5130442080213463e-01  -1.4724447633086599e-01  -1.1816344374666624e-01  -1.0288298732469480e-02  9.4303063786420727e-02  1.4190107776619154e-01  -2.8092782584914846e-02  -7.6766766691891766e-02  -1.4936841261337064e-01  -6.5629378227044635e-02  4.1691781648585891e-02  1.2806556514860404e-01  8.4899906096681105e-02  7.3416584881094996e-02  -2.2189789771575201e-02  2.7220842691354008e-01  -6.4099792794638469e-02  1.3217092504431324e-01  -1.1403837473875503e-01  -2.6808805601112123e-02  1.2219487056877570e-01  2.0841607517299734e-01  -4.4719971477115317e-02  2.2172473888846239e-01  1.4484345821958958e-01  1.0653434949730486e-01  -2.3501292789008685e-02  -2.5804027164330212e-01  2.3705185194749528e-01  -1.3402794963208373e-01  -6.7516223338268538e-02  7.8398687705193329e-02  2.2987146715888629e-01  8.1789401900979011e-02  -2.6335239268795850e-02  2.5033459306854111e-01  -1.5575582053271078e-01  1.1576619462875758e-01  1.3144523381382189e-01  3.6743845165388318e-02  1.7107098169771762e-03  1.0688803023302043e-02  1.3910026184317581e-01  1.9917790852367036e-02  4.8100639416361710e-02  2.1796613723776159e-01  1.3755330390831483e-01  3.9121717236059464e-02  2.4285392395404372e-02  -2.3631452015890359e-02  -6.2827405438689227e-02  6.1636202384509661e-02  2.6970260774276505e-01  1.0142216410142500e-01  -9.3396824006826612e-02  -7.2923322243341351e-05  2.1775872762020118e-01  -7.6076244087167857e-02  1.1660561494023593e-01  2.2087993272915589e-03  -3.9852773663864208e-02  9.5160240814238115e-02  1.2314656659998133e-02  6.4437254919242168e-02  2.5424791887404607e-01  -7.2917659000038488e-03  -5.3261015113620871e-02  2.3216867443800607e-01  -5.2133821560950859e-02  -5.2091675611736995e-04  1.6010591388180680e-02  2.0294290248750885e-01  1.9412816186644029e-02  2.3622919105114903e-01  1.2446279915333720e-01  8.6200246122789204e-02  3.6512443675721748e-02  -5.5258385099724201e-02  1.2034930176742283e-01  2.1065553124385247e-01  1.7207368955703833e-01  9.5171282059292817e-02  2.3572703969664228e-02  -1.0659896315858476e-01  1.2656474831948683e-01  -8.3826078022329942e-02  1.3920904793403122e-01  1.0502416275344600e-01  -8.0803966759792331e-02  2.1816029366982681e-02  -3.0407325426807994e-02  1.0461557350073934e-01  -9.4512343270100625e-03  -5.4162207477018574e-02  9.3185190451821359e-02  -2.9856196089801799e-02  1.0238472024747430e-02  -8.8906210431592414e-03  -1.4815436522906725e-01  -5.8189786079294363e-02  2.5715627768921865e-02  -9.0802292712251001e-02  -6.1755404433546275e-02  5.7022095837637836e-02  9.8374586632354929e-03  1.7584268929869090e-01  8.9978916291681976e-02  -3.0800668974431188e-02  -6.1803220462232460e-02  -6.3955715596071216e-02  4.1401237171265579e-02  -1.2675262954654554e-01  -1.1682970577958406e-01  -1.2963271719847128e-01  2.9832586672744636e-02  1.3686480340946233e-01  2.5623340100344927e-01  -2.4441596178787699e-02  -3.5460250493368463e-02  1.8104959505995108e-01  -5.1915717946362155e-02  -1.2572179574501765e-02  7.0645003341