<?xml version="1.0"?>
<VTKFile type="UnstructuredGrid"  version="0.1"  >
<UnstructuredGrid>
<Piece  NumberOfPoints="4826" NumberOfCells="9274">
<Points>
<DataArray  type="Float64"  NumberOfComponents="3"  format="ascii">0.004357787137616029 0.04980973490456689 0  2.448294430073374e-13 0.05 0  -0.004357787137128233 0.04980973490460956 0  -0.004357787137605706 -0.04980973490456778 0  -2.344882876518267e-13 -0.05 0  0.004357787137138513 -0.04980973490460866 0  -0.2 -0.2 0  0.55 -0.2 0  2 -0.2 0  2 0.21 0  0.55 0.21 0  -0.2 0.21 0  0.002180969368511386 0.0499524110790822 0  -0.002180969368010819 0.04995241107910407 0  -0.002180969368502513 -0.04995241107908259 0  0.002180969368021486 -0.0499524110791036 0  -0.006814597157868607 0.04953343583455493 0  -0.009254746151924908 0.04913603233537922 0  -0.01167226819248128 0.04861849601995923 0  -0.01406125267347753 0.04798209221420657 0  -0.01641585876037609 0.04722837686348521 0  -0.01873032967049142 0.04635919272846228 0  -0.02099900674774951 0.04537666487973717 0  -0.0232163432975249 0.04428319550226104 0  -0.0253769181477669 0.04308145802223435 0  -0.02747544890327456 0.04177439057082161 0  -0.02950680486062692 0.04036518880070902 0  -0.03146601955223609 0.03885729807305569 0  -0.0333483028888871 0.03725440503391573 0  -0.03514905287103829 0.03556042860074884 0  -0.03686386684027007 0.03377951038104073 0  -0.0384885522433417 0.0319160045464898 0  -0.04001913688258778 0.02997446718746979 0  -0.04145187862754741 0.0279596451738408 0  -0.04278327456411638 0.0258764645493049 0  -0.04401006955882648 0.02373001848771415 0  -0.04512926421732728 0.02152555484076227 0  -0.04613812221762188 0.01926846330748221 0  -0.04703417700009761 0.01696426225697686 0  -0.04781523779803292 0.0146185852365256 0  -0.04847939499380464 0.01223716719811699 0  -0.04902502478771633 0.009825830477053876 0  -0.04945079316803359 0.007390470556897103 0  -0.04975565917250895 0.004937041655599784 0  -0.04993887743343513 0.002471542168028815 0  -0.05000000000000002 4.319617580295088e-13 0  -0.04993887743347691 -0.002471542167184487 0  -0.04975565917259078 -0.004937041654775128 0  -0.0494507931681559 -0.007390470556078771 0  -0.04902502478787634 -0.00982583047625548 0  -0.048479394994003 -0.01223716719733118 0  -0.04781523779827011 -0.01461858523574979 0  -0.04703417700037211 -0.01696426225621582 0  -0.04613812221792003 -0.01926846330676828 0  -0.04512926421765873 -0.0215255548400674 0  -0.0440100695591652 -0.02373001848708596 0  -0.04278327456447995 -0.0258764645487038 0  -0.04145187862791943 -0.02795964517328926 0  -0.04001913688296869 -0.02997446718696123 0  -0.03848855224374843 -0.03191600454599933 0  -0.03686386684070041 -0.03377951038057109 0  -0.03514905287149575 -0.03556042860029668 0  -0.03334830288936536 -0.03725440503348761 0  -0.03146601955271191 -0.03885729807267038 0  -0.02950680486109357 -0.0403651888003679 0  -0.02747544890375341 -0.04177439057050667 0  -0.02537691814821718 -0.0430814580219691 0  -0.02321634329799415 -0.04428319550201502 0  -0.02099900674823039 -0.04537666487951462 0  -0.01873032967097447 -0.04635919272826711 0  -0.0164158587608675 -0.0472283768633144 0  -0.01406125267397827 -0.04798209221405982 0  -0.01167226819300015 -0.04861849601983465 0  -0.00925474615244812 -0.04913603233528067 0  -0.006814597158347743 -0.04953343583448901 0  0.006814597157865879 -0.04953343583455529 0  0.009254746151927097 -0.0491360323353788 0  0.01167226819248615 -0.04861849601995805 0  0.01406125267347329 -0.04798209221420779 0  0.01641585876037412 -0.04722837686348589 0  0.01873032967049753 -0.04635919272845981 0  0.02099900674775168 -0.04537666487973616 0  0.02321634329751479 -0.04428319550226633 0  0.02537691814775486 -0.04308145802224143 0  0.02747544890326525 -0.04177439057082774 0  0.02950680486061762 -0.04036518880071581 0  0.03146601955222702 -0.03885729807306303 0  0.0333483028888813 -0.03725440503392092 0  0.03514905287103634 -0.03556042860075076 0  0.03686386684026893 -0.03377951038104196 0  0.03848855224333972 -0.03191600454649218 0  0.04001913688258468 -0.02997446718747393 0  0.04145187862754592 -0.02795964517384301 0  0.04278327456411439 -0.02587646454930818 0  0.04401006955882308 -0.02373001848772046 0  0.04512926421732501 -0.02152555484076704 0  0.04613812221761816 -0.01926846330749109 0  0.04703417700009521 -0.01696426225698355 0  0.04781523779803072 -0.01461858523653281 0  0.04847939499380377 -0.01223716719812044 0  0.04902502478771547 -0.009825830477058137 0  0.04945079316803235 -0.007390470556905473 0  0.04975565917250727 -0.004937041655616693 0  0.0499388774334346 -0.002471542168039619 0  0.05 -4.403257272689309e-13 0  0.04993887743347755 0.002471542167171875 0  0.04975565917259197 0.004937041654763091 0  0.04945079316815711 0.007390470556070629 0  0.04902502478787914 0.009825830476241509 0  0.04847939499400326 0.01223716719733013 0  0.04781523779826526 0.01461858523576567 0  0.0470341770003617 0.01696426225624468 0  0.04613812221791593 0.01926846330677807 0  0.04512926421764892 0.02152555484008794 0  0.04401006955917259 0.02373001848707224 0  0.04278327456448917 0.02587646454868855 0  0.04145187862794129 0.02795964517325684 0  0.04001913688300011 0.02997446718691929 0  0.03848855224377164 0.03191600454597132 0  0.03686386684071396 0.03377951038055631 0  0.03514905287149344 0.03556042860029895 0  0.03334830288935025 0.03725440503350112 0  0.03146601955270811 0.03885729807267346 0  0.0295068048611069 0.04036518880035816 0  0.02747544890376348 0.04177439057050004 0  0.02537691814825449 0.04308145802194713 0  0.02321634329801946 0.04428319550200175 0  0.02099900674825754 0.04537666487950205 0  0.01873032967100249 0.04635919272825579 0  0.0164158587608822 0.04722837686330929 0  0.01406125267398022 0.04798209221405924 0  0.01167226819298624 0.04861849601983799 0  0.009254746152419701 0.04913603233528602 0  0.006814597158349477 0.04953343583448876 0  -0.187519667561546 -0.2 0  -0.1748316574821168 -0.2 0  -0.1619325192212862 -0.2 0  -0.148818726846035 -0.2 0  -0.1354867192353635 -0.2 0  -0.1219328603917423 -0.2 0  -0.1081534592978099 -0.2 0  -0.09414476589796635 -0.2 0  -0.07990295884356099 -0.2 0  -0.06542416303692469 -0.2 0  -0.05070442887227664 -0.2 0  -0.03573975841838681 -0.2 0  -0.02052606515274366 -0.2 0  -0.005059208927244263 -0.2 0  0.01066502121897589 -0.2 0  0.0266509074223695 -0.2 0  0.04290280916834216 -0.2 0  0.05942514657702952 -0.2 0  0.0762224259839136 -0.2 0  0.09329921648059353 -0.2 0  0.110660175036538 -0.2 0  0.1283100227830172 -0.2 0  0.1462535753141169 -0.2 0  0.1644957199166657 -0.2 0  0.1830414159977267 -0.2 0  0.2018957233573105 -0.2 0  0.2210637763821503 -0.2 0  0.2405507887204602 -0.2 0  0.260362079066015 -0.2 0  0.2805030358280229 -0.2 0  0.3009791451426284 -0.2 0  0.3217959904068706 -0.2 0  0.3429592343744705 -0.2 0  0.3644746437000989 -0.2 0  0.3863480795092348 -0.2 0  0.4085854991020529 -0.2 0  0.4311929577241948 -0.2 0  0.4541766164908302 -0.2 0  0.4775427321916551 -0.2 0  0.5012976684604897 -0.2 0  0.5254479006641548 -0.2 0  0.5749999999999358 -0.2 0  0.5999999999998969 -0.2 0  0.6249999999998155 -0.2 0  0.6499999999998081 -0.2 0  0.6749999999997656 -0.2 0  0.6999999999997664 -0.2 0  0.7249999999997357 -0.2 0  0.7499999999996745 -0.2 0  0.7749999999995796 -0.2 0  0.7999999999995281 -0.2 0  0.8249999999994608 -0.2 0  0.8499999999994138 -0.2 0  0.8749999999993301 -0.2 0  0.8999999999992546 -0.2 0  0.9249999999991836 -0.2 0  0.9499999999990955 -0.2 0  0.9749999999990373 -0.2 0  0.9999999999989423 -0.2 0  1.024999999998847 -0.2 0  1.049999999998752 -0.2 0  1.074999999998672 -0.2 0  1.099999999998649 -0.2 0  1.124999999998554 -0.2 0  1.149999999998545 -0.2 0  1.174999999998451 -0.2 0  1.199999999998416 -0.2 0  1.224999999998348 -0.2 0  1.249999999998288 -0.2 0  1.274999999998288 -0.2 0  1.299999999998246 -0.2 0  1.324999999998369 -0.2 0  1.349999999998394 -0.2 0  1.37499999999845 -0.2 0  1.399999999998551 -0.2 0  1.424999999998531 -0.2 0  1.449999999998684 -0.2 0  1.474999999998642 -0.2 0  1.499999999998804 -0.2 0  1.524999999998773 -0.2 0  1.549999999998885 -0.2 0  1.574999999999013 -0.2 0  1.599999999999079 -0.2 0  1.624999999999119 -0.2 0  1.649999999999211 -0.2 0  1.674999999999224 -0.2 0  1.699999999999321 -0.2 0  1.724999999999342 -0.2 0  1.749999999999427 -0.2 0  1.774999999999474 -0.2 0  1.799999999999533 -0.2 0  1.824999999999605 -0.2 0  1.849999999999639 -0.2 0  1.874999999999735 -0.2 0  1.899999999999745 -0.2 0  1.924999999999841 -0.2 0  1.949999999999869 -0.2 0  1.974999999999947 -0.2 0  2 -0.1758823529412649 0  2 -0.1517647058824698 0  2 -0.12764705882371 0  2 -0.103529411764951 0  2 -0.07941176470620959 0  2 -0.05529411764745706 0  2 -0.03117647058865336 0  2 -0.007058823529918185 0  2 0.01705882352889865 0  2 0.04117647058779714 0  2 0.06529411764668486 0  2 0.08941176470558332 0  2 0.1135294117644398 0  2 0.137647058823337 0  2 0.1617647058822356 0  2 0.185882352941134 0  1.975000000000015 0.21 0  1.950000000000055 0.21 0  1.925000000000061 0.21 0  1.90000000000011 0.21 0  1.875000000000116 0.21 0  1.850000000000166 0.21 0  1.825000000000172 0.21 0  1.800000000000206 0.21 0  1.775000000000227 0.21 0  1.750000000000322 0.21 0  1.725000000000369 0.21 0  1.700000000000375 0.21 0  1.675000000000454 0.21 0  1.650000000000517 0.21 0  1.62500000000057 0.21 0  1.600000000000658 0.21 0  1.575000000000687 0.21 0  1.550000000000789 0.21 0  1.525000000000806 0.21 0  1.500000000000905 0.21 0  1.475000000001007 0.21 0  1.450000000001109 0.21 0  1.42500000000121 0.21 0  1.400000000001312 0.21 0  1.375000000001406 0.21 0  1.350000000001428 0.21 0  1.32500000000153 0.21 0  1.300000000001554 0.21 0  1.275000000001647 0.21 0  1.250000000001522 0.21 0  1.225000000001572 0.21 0  1.200000000001437 0.21 0  1.175000000001446 0.21 0  1.15000000000137 0.21 0  1.125000000001303 0.21 0  1.100000000001302 0.21 0  1.075000000001145 0.21 0  1.050000000001136 0.21 0  1.025000000000966 0.21 0  1.000000000000931 0.21 0  0.9750000000008732 0.21 0  0.9500000000008135 0.21
[...]
<PointData  Scalars="pressure"> 
<DataArray  type="Float64"  Name="pressure"  format="ascii">-7.9522551922541207e-01  -1.0185541463981500e+00  -1.0201954138142990e+00  -8.4473025607276275e-01  -7.4178462629553721e-01  -8.1274514785256879e-01  5.1182149819570488e-01  2.5815664754785456e-01  0.0000000000000000e+00  0.0000000000000000e+00  9.5137144829593803e-02  4.4903054116975194e-01  -9.1772901803417783e-01  -1.0624002638990906e+00  -7.5464998298643549e-01  -7.6486650967209668e-01  -1.0446647786803525e+00  -1.0492047583661508e+00  -1.0394987151660655e+00  -1.0186769472642050e+00  -9.8348952209029883e-01  -9.3183502721961142e-01  -8.6615757313458375e-01  -7.8673889775543848e-01  -6.8950394795716552e-01  -5.7530557870495458e-01  -4.4717367960040527e-01  -3.1030453551829940e-01  -1.6144646922802597e-01  2.7815130035730041e-03  1.6894278059847220e-01  3.4531986231816025e-01  5.2163876120915476e-01  6.9570988428580904e-01  8.7464082967447565e-01  1.0403060124890458e+00  1.2064609411079406e+00  1.3582066600218403e+00  1.4977449517259647e+00  1.6251850855133436e+00  1.7337783317212221e+00  1.8241554805764093e+00  1.8960254732177009e+00  1.9485430422181129e+00  1.9753688462869887e+00  1.9823109640217034e+00  1.9673354540391690e+00  1.9293156749513640e+00  1.8711023271003921e+00  1.7913611870710882e+00  1.6942426319588908e+00  1.5815779792285078e+00  1.4497186958392665e+00  1.3089521715956496e+00  1.1540417355886692e+00  9.9046994694478530e-01  8.2270424873121395e-01  6.5011813711073629e-01  4.8048455729246548e-01  3.1166064284336792e-01  1.4198162562092284e-01  -9.1902604353023172e-03  -1.6324636247531885e-01  -2.9917516000884842e-01  -4.2410438595497291e-01  -5.3672599535059506e-01  -6.3512778347941234e-01  -7.1401023363005967e-01  -7.8285277386471941e-01  -8.2894936962811927e-01  -8.6568444873305184e-01  -8.8238560474632677e-01  -8.8761237365953127e-01  -8.7777231340907114e-01  -8.5924143671709385e-01  -7.4109535008909033e-01  -6.9592332930431922e-01  -6.5379133096119890e-01  -6.1361436266229863e-01  -5.7799008730925427e-01  -5.4558048971171957e-01  -5.1697954648791711e-01  -4.9154520254522738e-01  -4.6932439653864944e-01  -4.5000915364262478e-01  -4.3302177874157122e-01  -4.1884757952700058e-01  -4.0723987145012819e-01  -3.9745155251251996e-01  -3.8991889590350226e-01  -3.8408702915258863e-01  -3.8029842287713816e-01  -3.7750286089867519e-01  -3.7600009753072311e-01  -3.7489339397481863e-01  -3.7455824335409815e-01  -3.7442811298374118e-01  -3.7446765704485718e-01  -3.7461108403018095e-01  -3.7517026231867329e-01  -3.7583222107526143e-01  -3.7719816136363871e-01  -3.7911456920820880e-01  -3.8191816095070735e-01  -3.8576607458978129e-01  -3.9076720108899599e-01  -3.9672064473574886e-01  -4.0413592542242255e-01  -4.1222074718861956e-01  -4.2112588287952296e-01  -4.3045926470062434e-01  -4.4010870264906399e-01  -4.4945345949995619e-01  -4.5871761535618355e-01  -4.6738883704241885e-01  -4.7531347176161393e-01  -4.8287554488108719e-01  -4.8986523841412466e-01  -4.9656839749982412e-01  -5.0337192668859043e-01  -5.1067123884404997e-01  -5.1877973157418178e-01  -5.2842902414853621e-01  -5.3971148218700027e-01  -5.5346378325846357e-01  -5.6953551140569703e-01  -5.8858588593898964e-01  -6.1053209189340707e-01  -6.3551485308753008e-01  -6.6358253539121392e-01  -6.9435313203911897e-01  -7.2722227516713589e-01  -7.6124205958948610e-01  -7.9736530921998372e-01  5.1115486935492860e-01  5.1031371499497213e-01  5.0861961705697245e-01  5.0621014395696351e-01  5.0240532570546825e-01  4.9686406547330053e-01  4.8881751757534964e-01  4.7783259722916238e-01  4.6261871156807993e-01  4.4296840032967449e-01  4.1800852153485157e-01  3.8682027545790804e-01  3.5128092816948414e-01  3.1016220084135238e-01  2.6648377045315130e-01  2.2210799927408972e-01  1.7807117896986038e-01  1.3524383137296955e-01  9.8588055103291022e-02  6.4222167764605070e-02  3.7188554689697291e-02  1.4063757310979542e-02  -3.0670857489883646e-03  -1.8182050675229506e-02  -2.7864286347673160e-02  -3.6632011107213702e-02  -4.3088470992520875e-02  -4.9219552897490901e-02  -5.2224682979612566e-02  -4.8275030475529015e-02  -3.5185183063021278e-02  -6.9956089683413285e-03  3.2822483860955209e-02  8.5841160959087948e-02  1.4374784894618145e-01  2.0404516658997365e-01  2.5456098720133147e-01  2.9427179625325411e-01  3.1135408635195849e-01  3.1537048846770699e-01  2.9301525107986853e-01  2.1837562077617736e-01  1.8425448140393641e-01  1.5542152010320673e-01  1.3066987791829338e-01  1.0811199945636844e-01  8.4294962429421735e-02  6.1048227079063613e-02  4.9655853144499398e-02  5.3649634894607570e-02  8.2664734830878550e-02  1.2696427248258199e-01  1.7623757420282118e-01  2.1785299548914944e-01  2.4435014787338175e-01  2.4936111835225763e-01  2.4188715658683840e-01  2.2114676412503950e-01  1.9386302444501591e-01  1.5772051703579903e-01  1.1754935229513369e-01  7.3458614020507823e-02  2.5554289905475022e-02  -1.0488669601043657e-02  -2.9644975147873627e-02  -1.6223356446277176e-02  2.5696413431720529e-02  7.9982007809165520e-02  1.3453749601349832e-01  1.7647864621560674e-01  2.0437851956346517e-01  2.1149995110192774e-01  2.0220939372066207e-01  1.7668160764333091e-01  1.3638804741251914e-01  8.9916256564373034e-02  4.3217397269411817e-02  -1.9632363923082624e-03  -3.2380239328363696e-02  -4.3913204451239175e-02  -4.0237966906338032e-02  -1.9915753060631536e-02  9.2680913905347165e-03  4.1468343464362456e-02  7.3589355717796692e-02  9.9493277401169658e-02  1.1764693970620498e-01  1.2366579163645536e-01  1.1906008983136422e-01  1.0297700982308768e-01  7.9191234450684753e-02  5.1865246886015806e-02  2.1268936631660976e-02  -4.9042756128081415e-03  -2.3860534027669043e-02  -3.1769650255238140e-02  -2.8354109554234751e-02  -1.6382665757664932e-02  0.0000000000000000e+00  0.0000000000000000e+00  0.0000000000000000e+00  0.0000000000000000e+00  0.0000000000000000e+00  0.0000000000000000e+00  0.0000000000000000e+00  0.0000000000000000e+00  0.0000000000000000e+00  0.0000000000000000e+00  0.0000000000000000e+00  0.0000000000000000e+00  0.0000000000000000e+00  0.0000000000000000e+00  0.0000000000000000e+00  0.0000000000000000e+00  2.0785999087671238e-02  3.6775900981014950e-02  4.4387263641474425e-02  4.4828210549064294e-02  3.6005151989947984e-02  2.0505939946502211e-02  1.9539007283014701e-03  -1.8438922320846568e-02  -3.5984885825666287e-02  -4.5221498104402603e-02  -4.7140692320128567e-02  -3.7938487003274714e-02  -1.5459390675581747e-02  1.5571012427313707e-02  5.1632439142002322e-02  8.9026071543411647e-02  1.2179973573156014e-01  1.4605740953274574e-01  1.5527454944973618e-01  1.5412102102714476e-01  1.3781141480392162e-01  1.0888973414109228e-01  7.2263186977953295e-02  2.9464866952102604e-02  -9.2660303172379752e-03  -3.0949259131728388e-02  -3.6591080553183511e-02  -1.0076358805422212e-02  3.2567306336308652e-02  8.8160704086653816e-02  1.3934383213085458e-01  1.8502119712363380e-01  2.2203784629482293e-01  2.4256749503337399e-01  2.4561134373275492e-01  2.2878087455098378e-01  1.8647951758277145e-01  1.3174811086851579e-01  7.2956351414701623e-02  2.9813291435927217e-02  1.3468225884561221e-02  2.0918638924288760e-02  4.4429924124062915e-02  7.6440102397875451e-02  1.1066427087874262e-01  1.4291405257321041e-01  1.7171720425583931e-01  1.9559781257606268e-01  2.1511195183841289e-01  2.3192446949692172e-01  2.4160257864398521e-01  2.4279328944662290e-01  2.3383118441867823e-01  2.1376030545231373e-01  1.8717281280508011e-01  1.5577007176162649e-01  1.2616604406100879e-01  6.3221095603059510e-02  3.8843269365670369e-02  2.2485839625746171e-02  2.1361711461332963e-02  3.6347952951771040e-02  6.8213142792869177e-02  1.0547488862026846e-01  1.4193914498206403e-01  1.7159802634939841e-01  1.8652180862420376e-01  1.8844439506916463e-01  1.8071742013907305e-01  1.6539931360696905e-01  1.4385463989517944e-01  1.1883832927309913e-01  9.4172014333993401e-02  7.1917809999978946e-02  5.3775203341684862e-02  4.2567285639714354e-02  3.9134007398368094e-02  4.1864043039338356e-02  5.3511543660924477e-02  7.2737525746837853e-02  9.7686839729749064e-02  1.2913217819176590e-01  1.6429394127013186e-01  2.0144782334547529e-01  2.3923518974959232e-01  2.7573094427768657e-01  3.0969841351821670e-01  3.3943964121461423e-01  3.6579640715854922e-01  3.8724449680220846e-01  4.0439355281317613e-01  4.1833837060583201e-01  4.2845718957736850e-01  4.3625949337146219e-01  4.4151430418528864e-01  4.4507000580446260e-01  4.4720134672391676e-01  4.4835969957709848e-01  4.4888857114270753e-01  4.4996419476638233e-01  4.5373136638401251e-01  4.6134628039596670e-01  4.7367856211592446e-01  4.9155065398194786e-01  5.1506879099149527e-01  5.4411283810714506e-01  5.7812637978111026e-01  6.1623109379236118e-01  6.5631151181222114e-01  6.9682491219311249e-01  7.3488404726302492e-01  7.6763784595427464e-01  7.9346658957112481e-01  8.1069994519013455e-01  8.1520344443391624e-01  8.0992564266766232e-01  7.9415575255182502e-01  7.6942339037206353e-01  7.3914446172478265e-01  7.0415556877228269e-01  6.6842484269568714e-01  6.3332064796257626e-01  6.0153392208437884e-01  5.7390836019189451e-01  5.5152389410246005e-01  5.3457715467303557e-01  5.2282379398131240e-01  5.1600934702081325e-01  5.1244076850763920e-01  5.1169816709179949e-01  2.6131117264157766e-01  2.6924817651975469e-01  2.7976979675055386e-01  2.7677699626800240e-01  2.2887534543733021e-01  1.5576312220612368e-01  5.8488566348414435e-02  -2.6278722499821119e-02  -6.8005048383837224e-02  -5.8327005738042732e-02  -1.9308300865986607e-03  4.1975029693196650e-02  6.0005007658808382e-02  7.1904118460936514e-02  8.4817943941360427e-02  9.1767967517900728e-02  -1.4628469737715777e-02  -1.9623057106163227e-02  -1.6818361293286389e-02  -6.8704898885670390e-03  7.8302935030772888e-02  -3.0001572612170006e-02  -3.3998032064287945e-03  -1.2597390897176991e-01  1.7907493229975660e-01  -7.5282404358819582e-02  -1.6307662662633451e-01  1.2360041755682039e-01  1.2215119576409908e-01  4.3142853337968232e-02  2.4395648825211178e-01  7.8910729471168728e-02  -5.7041604747112756e-02  -3.8326201187551458e-02  1.2113117410759655e-01  -7.9983263975959562e-02  1.7938965883162650e-01  1.6668393836342399e-01  -1.1323218505836263e-01  -4.0626501838420571e-02  1.1283889155131646e-01  2.3059188044103179e-01  -1.2594022827501486e-01  2.3306764947335912e-01  -1.7617616417445230e-02  -4.8755618111718392e-02  2.7869288496757338e-01  -8.9678110626542615e-02  -1.8818462745885813e-02  -3.5436072232702012e-03  8.1794621120163377e-02  -2.4271852277655465e-02  -1.7519307859240406e-02  2.0379976470422254e-01  -1.4068678675482338e-02  -2.1833149085816846e-02  -2.8356347407985909e-02  1.8342982030378062e-02  -8.1121441277714427e-03  4.0690044770330260e-02  1.1494704145550551e-01  9.2673972932930962e-02  -2.3677933695058568e-02  -4.0466387516939199e-02  1.4567887271312172e-01  6.3507548344897385e-02  1.7413343433670717e-01  -5.9465682430521902e-02  -9.0923213524890245e-02  1.5010525235128780e-01  2.1683556758008876e-01  1.1791854468877104e-01  -3.8606048081842662e-02  1.4462198429725764e-01  1.7355699382045203e-01  -7.6097691397283757e-02  4.7773538203813408e-02  -1.3903678841164427e-01  3.3739391399263172e-02  2.6280156611601189e-02  2.6585787071844896e-01  3.1808201787519537e-02  -1.6921924498059723e-01  9.3189770390678550e-02  1.1840518060464846e-01  -2.8430794647949172e-02  -6.4541580850062646e-02  5.6558838840616354e-02  7.7058991972185784e-02  -1.2031653501211775e-01  3.3960465665535115e-02  8.3158359096256407e-02  1.0250766798823921e-01  -3.1339247383054332e-02  -4.2210628500822932e-02  2.5933334958260440e-01  1.8020311353089444e-01  2.1537889936290860e-01  -2.5860050375931396e-02  8.5933277240101372e-02  1.4740539231713395e-01  3.2253577951002282e-02  2.8980156154265083e-02  -7.6535045247881558e-02  1.5713417991502227e-01  4.7055988410595558e-02  -3.1374304451102647e-01  1.8176172117561543e-01  2.2978092423755508e-01  -5.4786290762342205e-02  -6.3743975714149234e-02  -1.0674718898515444e-01  1.0311613794764254e-01  9.5814920499674119e-02  7.1581853475395960e-02  -9.4884853749831466e-02  -2.5916085284298316e-02  -3.5304458582489276e-02  3.6729816056783410e-02  8.9402113442227954e-02  2.4589106694527161e-02  4.7845705010135874e-02  1.6926040064116965e-01  -4.6157408287166709e-03  3.9579550125246332e-02  2.4966214844886613e-02  1.6713884939924603e-01  2.4147429814365784e-03  1.0413578834474409e-01  -2.2428512654884238e-02  1.1862767075427970e-01  2.1671226777379463e-01  -3.7459075714803280e-02  5.8909494594123800e-03  -3.6064953763459535e-02  -1.5812841325527301e-02  -6.1071676337365828e-02  1.9802290637019750e-02  -2.5076524426946193e-02  2.3120788247913199e-01  2.1070298906531504e-01  2.5757983011144037e-01  3.3588205285034367e-02  -7.6673867433540738e-02  1.0056485339136613e-02  9.2103560404142443e-02  -1.7078636193852884e-01  -7.4091678518452900e-02  1.8761108184709072e-01  3.5476065543435117e-02  -2.1110645775274547e-01  1.3554590944001533e-02  -5.3622144435969230e-02  -3.4513381933955693e-02  1.6432089691792151e-01  6.2846856607241583e-02  6.0813066838471777e-02  1.8665092086669127e-01  -7.7618246360482882e-02  2.0255319590245680e-01  1.3490821274809883e-01  4.8079608643386194e-02  2.7736625910072907e-02  2.5868863440665257e-01  1.5032810582548714e-01  1.8113620778887027e-01  8.7711310531768144e-02  -1.3849478660256095e-01  -9.7211350270355892e-02  1.0422222972954895e-01  -1.0747706770122961e-01  -1.5023259975504569e-01  -9.0242449211786091e-02  7.0261553007339370e-02  7.2916344772447961e-02  -1.5728365169670244e-01  1.8038785892206407e-03  -9.7090163568573890e-02  2.2517439491264935e-02  -5.5889554872826645e-02  -1.1521994308937222e-01  3.7827602039559378e-02  -1.2543998664696025e-02  7.0487898721543721e-02  1.2901560345867852e-01  7.0314123343845472e-02  -1.3282215653735194e-01  -2.2671382711439456e-01  7.6902263380400612e-02  -3.3812364322442813e-03  3.0736933410199355e-02  -9.7450858730701376e-03  6.3198444614365384e-02  8.7351779854501529e-02  -6.3081549748010182e-02  -5.4456976553592343e-02  2.1431941152790540e-01  2.5271653476687350e-01  2.1116087146069416e-02  -4.8197519427426658e-02  4.5449039504811151e-03  1.9610470114075249e-01  3.5559664955284946e-02  1.3467514349176882e-01  -3.2287030895809914e-02  4.1612304570275357e-02  4.2990401400451517e-02  2.0951474685482513e-01  5.0361211841930431e-02  2.5424792892617049e-01  -5.4793639600248849e-02  1.0334657240256244e-01  -2.4379860896057956e-01  -8.4021801983826151e-05  2.4614367066809348e-01  3.0377256181787642e-02  2.4480547477060335e-01  7.0879005034114748e-02  6.9580271472447905e-03  3.1580716534483376e-02  2.6297440819431309e-02  -7.9497119902536162e-02  2.7480995446627004e-02  -3.5977848239532307e-04  1.2012930890341099e-01  1.9768943972147211e-02  8.2892552478744368e-03  2.5590253255399603e-01  1.4941186166394257e-01  -4.9711377495588994e-02  5.1255575364514749e-02  1.1725730793941749e-01  -9.1039966046996337e-02  7.2120772162271099e-02  1.6910562988960051e-01  -5.0602881706649080e-04  -1.2950694078680972e-01  1.3010583728009881e-01  9.5276427707553971e-02  1.8620779895322864e-01  1.3295595519821612e-01  -3.5144802048404998e-02  -9.7443812984625400e-02  2.1189006456778042e-01  1.0775017699470124e-01  1.0609724820313240e-01  3.3749385598228578e-02  -3.6437345787831733e-03  1.0749793276844737e-02  1.2207012848836540e-01  1.3672193910279087e-01  1.4698733291897387e-01  -5.4422820171787192e-02  2.0726495021825022e-02  3.1270738426160252e-02  2.4623706794644989e-01  2.5867537340646712e-01  -3.2212113882637949e-02  3.6128582945874864e-02  3.9326774677482745e-02  1.8532990809617536e-01  -2.2769670084216244e-02  -9.8653290238241414e-03  -8.0708006917087169e-02  -1.4325567088655683e-01  1.2373111954900981e-01  2.6167961485143925e-02  1.5513026988931758e-01  -8.1040844995625264e-02  5.8853179970796234e-02  -5.3488878445826400e-02  6.2514220315454186e-02  6.1992623288869833e-03  -1.4583738812254687e-01  1.4477197298201058e-01  1.2512481294989272e-01  -4.8096091668617620e-02  1.8515413788546896e-02  1.0261547760829781e-01  1.8742847337107460e-01  2.1254895984600117e-01  -2.0961539991528801e-02  2.2004448328925458e-01  -3.8915165738672271e-02  1.9049890992327584e-01  -4.0382422616309525e-02  -4.3437850003144533e-02  5.4000785967497529e-02  7.1471875608149327e-02  -7.2440707017230807e-02  1.7423377018860683e-01  -1.3141302799685511e-01  2.3780573875758534e-01  -1.2335108438538142e-01  -1.3177591350353911e-02  7.6931974484561972e-03  4.8708014003116432e-02  2.1411743082432838e-01  8.1197638084876789e-02  3.7959412583840821e-02  4.3526990700279447e-02  1.0842386520093913e-01  2.0350425763765573e-01  -4.0099282529776452e-02  1.1971902736215963e-01  1.5974700865355082e-01  3.7775179218058209e-02  -4.3134124920021312e-02  -1.1250553026707358e-02  -3.8605710985201470e-02  8.3411290590223980e-02  4.1396634652361396e-03  -6.2227546236019712e-02  1.6997672581300002e-01  1.7727915765714874e-02  -8.1420265660473098e-02  -1.6886130996194318e-01  1.0641347862806584e-01  1.6980855075944323e-01  1.8584665418677135e-02  2.5126635481591358e-01  1.2245191370109337e-01  4.0597407434136236e-02  1.2790200853084138e-01  1.3407524271750040e-01  8.2894849534331974e-02  2.5109099735506807e-01  -6.5563466584232163e-02  1.1724923599676690e-01  -9.7681085235447898e-02  -3.9553025449120323e-02  -1.4373134285553027e-01  4.7572828586577610e-02  -6.8957065048906793e-02  1.4180469427074158e-01  2.0405927422753758e-01  1.0046141702132919e-01  4.3232339449413210e-02  2.4418449329416578e-01  7.6465087498262432e-02  1.5350227193142116e-01  1.5233830704337362e-01  8.9095360479165848e-03  1.3907058057297592e-01  -1.9135952816204130e-02  -1.6405416322433436e-01  3.5573818842438878e-03  -3.2893896503531674e-02  9.5464030948479411e-02  -7.1908211934706354e-02  -1.9825267739841290e-02  -7.5415572584198468e-02  1.2769836914060193e-01  -1.0082401916366569e-01  -7.3226461385106981e-02  7.0784524177809310e-02  2.7615255700987712e-01  -1.0397810214704344e-01  -1.7474958453411271e-01  -4.4688734070164042e-02  7.7835217384125660e-02  -5.2662796195009021e-02  2.0987982680234998e-01  -2.8890728270831278e-02  2.8696854722343738e-02  4.7904652856265356e-02  3.2414012981904994e-02  -6.8624053040543243e-04  4.1187562919714461e-02  2.7056337753865373e-01  1.7714329950450614e-01  3.5791176840761170e-02  -1.1999506132639268e-01  2.0425214718213403e-02  -5.3296561801871978e-02  8.8402023153446307e-02  1.3448067976714748e-01  8.8108660759174798e-02  1.2349779499512871e-01  -1.5660185296960108e-01  5.2443931064299683e-02  1.3300312964886193e-01  2.2143304080790133e-03  -3.0714777378468432e-02  2.1246487910801576e-01  4.7708009868427000e-02  -6.6376567725837110e-02  -4.6016189510618130e-02  -5.2790265931944039e-02  5.9917516171124532e-03  5.1827168049944174e-02  1.1435731000277337e-01  -1.1352380513593867e-01  1.2874526566777925e-01  3.2138152631725914e-03  8.0334118490883913e-02  -2.6714350680941035e-01  -1.1557874208609245e-01  -8.5359628547383146e-02  1.3552691497173561e-01  -1.4095786503714252e-02  5.3024100684562057e-02  -8.6100098988753065e-02  -3.4133151617849571e-02  6.6687190881723701e-02  2.3301069441518135e-01  -1.7940002961710232e-02  6.3852308082836901e-02  -2.5849489366749485e-02  2.3482363560707459e-02  1.6802217019485442e-02  -4.3130647770262688e-02  7.6578102351598801e-02  1.5271263006445587e-01  2.0129317683160669e-01  2.3038211767970506e-02  9.2841564707647359e-02  1.3704982449529890e-01  2.8755827956269134e-02  2.5801025197759520e-01  1.9416226148678391e-02  -1.4062777907542473e-01  -1.1138532448463469e-01  1.1480052062130083e-02  9.1241340541002650e-02  1.6262433982798236e-01  -6.5631324704441787e-02  1.3974908108261411e-01  1.4741839571104964e-01  1.6514467497895496e-01  -5.0479221015000776e-02  1.0325290216401714e-01  8.2889341106482675e-02  3.7814802080677487e-02  -7.5878302937166173e-03  1.0964638350040312e-01  1.4777973062527727e-01  -3.5325455132123450e-02  -2.1579277176734024e-02  8.2677