<?xml version="1.0"?>
<VTKFile type="UnstructuredGrid"  version="0.1"  >
<UnstructuredGrid>
<Piece  NumberOfPoints="4826" NumberOfCells="9274">
<Points>
<DataArray  type="Float64"  NumberOfComponents="3"  format="ascii">0.004357787137616029 0.04980973490456689 0  2.448294430073374e-13 0.05 0  -0.004357787137128233 0.04980973490460956 0  -0.004357787137605706 -0.04980973490456778 0  -2.344882876518267e-13 -0.05 0  0.004357787137138513 -0.04980973490460866 0  -0.2 -0.2 0  0.55 -0.2 0  2 -0.2 0  2 0.21 0  0.55 0.21 0  -0.2 0.21 0  0.002180969368511386 0.0499524110790822 0  -0.002180969368010819 0.04995241107910407 0  -0.002180969368502513 -0.04995241107908259 0  0.002180969368021486 -0.0499524110791036 0  -0.006814597157868607 0.04953343583455493 0  -0.009254746151924908 0.04913603233537922 0  -0.01167226819248128 0.04861849601995923 0  -0.01406125267347753 0.04798209221420657 0  -0.01641585876037609 0.04722837686348521 0  -0.01873032967049142 0.04635919272846228 0  -0.02099900674774951 0.04537666487973717 0  -0.0232163432975249 0.04428319550226104 0  -0.0253769181477669 0.04308145802223435 0  -0.02747544890327456 0.04177439057082161 0  -0.02950680486062692 0.04036518880070902 0  -0.03146601955223609 0.03885729807305569 0  -0.0333483028888871 0.03725440503391573 0  -0.03514905287103829 0.03556042860074884 0  -0.03686386684027007 0.03377951038104073 0  -0.0384885522433417 0.0319160045464898 0  -0.04001913688258778 0.02997446718746979 0  -0.04145187862754741 0.0279596451738408 0  -0.04278327456411638 0.0258764645493049 0  -0.04401006955882648 0.02373001848771415 0  -0.04512926421732728 0.02152555484076227 0  -0.04613812221762188 0.01926846330748221 0  -0.04703417700009761 0.01696426225697686 0  -0.04781523779803292 0.0146185852365256 0  -0.04847939499380464 0.01223716719811699 0  -0.04902502478771633 0.009825830477053876 0  -0.04945079316803359 0.007390470556897103 0  -0.04975565917250895 0.004937041655599784 0  -0.04993887743343513 0.002471542168028815 0  -0.05000000000000002 4.319617580295088e-13 0  -0.04993887743347691 -0.002471542167184487 0  -0.04975565917259078 -0.004937041654775128 0  -0.0494507931681559 -0.007390470556078771 0  -0.04902502478787634 -0.00982583047625548 0  -0.048479394994003 -0.01223716719733118 0  -0.04781523779827011 -0.01461858523574979 0  -0.04703417700037211 -0.01696426225621582 0  -0.04613812221792003 -0.01926846330676828 0  -0.04512926421765873 -0.0215255548400674 0  -0.0440100695591652 -0.02373001848708596 0  -0.04278327456447995 -0.0258764645487038 0  -0.04145187862791943 -0.02795964517328926 0  -0.04001913688296869 -0.02997446718696123 0  -0.03848855224374843 -0.03191600454599933 0  -0.03686386684070041 -0.03377951038057109 0  -0.03514905287149575 -0.03556042860029668 0  -0.03334830288936536 -0.03725440503348761 0  -0.03146601955271191 -0.03885729807267038 0  -0.02950680486109357 -0.0403651888003679 0  -0.02747544890375341 -0.04177439057050667 0  -0.02537691814821718 -0.0430814580219691 0  -0.02321634329799415 -0.04428319550201502 0  -0.02099900674823039 -0.04537666487951462 0  -0.01873032967097447 -0.04635919272826711 0  -0.0164158587608675 -0.0472283768633144 0  -0.01406125267397827 -0.04798209221405982 0  -0.01167226819300015 -0.04861849601983465 0  -0.00925474615244812 -0.04913603233528067 0  -0.006814597158347743 -0.04953343583448901 0  0.006814597157865879 -0.04953343583455529 0  0.009254746151927097 -0.0491360323353788 0  0.01167226819248615 -0.04861849601995805 0  0.01406125267347329 -0.04798209221420779 0  0.01641585876037412 -0.04722837686348589 0  0.01873032967049753 -0.04635919272845981 0  0.02099900674775168 -0.04537666487973616 0  0.02321634329751479 -0.04428319550226633 0  0.02537691814775486 -0.04308145802224143 0  0.02747544890326525 -0.04177439057082774 0  0.02950680486061762 -0.04036518880071581 0  0.03146601955222702 -0.03885729807306303 0  0.0333483028888813 -0.03725440503392092 0  0.03514905287103634 -0.03556042860075076 0  0.03686386684026893 -0.03377951038104196 0  0.03848855224333972 -0.03191600454649218 0  0.04001913688258468 -0.02997446718747393 0  0.04145187862754592 -0.02795964517384301 0  0.04278327456411439 -0.02587646454930818 0  0.04401006955882308 -0.02373001848772046 0  0.04512926421732501 -0.02152555484076704 0  0.04613812221761816 -0.01926846330749109 0  0.04703417700009521 -0.01696426225698355 0  0.04781523779803072 -0.01461858523653281 0  0.04847939499380377 -0.01223716719812044 0  0.04902502478771547 -0.009825830477058137 0  0.04945079316803235 -0.007390470556905473 0  0.04975565917250727 -0.004937041655616693 0  0.0499388774334346 -0.002471542168039619 0  0.05 -4.403257272689309e-13 0  0.04993887743347755 0.002471542167171875 0  0.04975565917259197 0.004937041654763091 0  0.04945079316815711 0.007390470556070629 0  0.04902502478787914 0.009825830476241509 0  0.04847939499400326 0.01223716719733013 0  0.04781523779826526 0.01461858523576567 0  0.0470341770003617 0.01696426225624468 0  0.04613812221791593 0.01926846330677807 0  0.04512926421764892 0.02152555484008794 0  0.04401006955917259 0.02373001848707224 0  0.04278327456448917 0.02587646454868855 0  0.04145187862794129 0.02795964517325684 0  0.04001913688300011 0.02997446718691929 0  0.03848855224377164 0.03191600454597132 0  0.03686386684071396 0.03377951038055631 0  0.03514905287149344 0.03556042860029895 0  0.03334830288935025 0.03725440503350112 0  0.03146601955270811 0.03885729807267346 0  0.0295068048611069 0.04036518880035816 0  0.02747544890376348 0.04177439057050004 0  0.02537691814825449 0.04308145802194713 0  0.02321634329801946 0.04428319550200175 0  0.02099900674825754 0.04537666487950205 0  0.01873032967100249 0.04635919272825579 0  0.0164158587608822 0.04722837686330929 0  0.01406125267398022 0.04798209221405924 0  0.01167226819298624 0.04861849601983799 0  0.009254746152419701 0.04913603233528602 0  0.006814597158349477 0.04953343583448876 0  -0.187519667561546 -0.2 0  -0.1748316574821168 -0.2 0  -0.1619325192212862 -0.2 0  -0.148818726846035 -0.2 0  -0.1354867192353635 -0.2 0  -0.1219328603917423 -0.2 0  -0.1081534592978099 -0.2 0  -0.09414476589796635 -0.2 0  -0.07990295884356099 -0.2 0  -0.06542416303692469 -0.2 0  -0.05070442887227664 -0.2 0  -0.03573975841838681 -0.2 0  -0.02052606515274366 -0.2 0  -0.005059208927244263 -0.2 0  0.01066502121897589 -0.2 0  0.0266509074223695 -0.2 0  0.04290280916834216 -0.2 0  0.05942514657702952 -0.2 0  0.0762224259839136 -0.2 0  0.09329921648059353 -0.2 0  0.110660175036538 -0.2 0  0.1283100227830172 -0.2 0  0.1462535753141169 -0.2 0  0.1644957199166657 -0.2 0  0.1830414159977267 -0.2 0  0.2018957233573105 -0.2 0  0.2210637763821503 -0.2 0  0.2405507887204602 -0.2 0  0.260362079066015 -0.2 0  0.2805030358280229 -0.2 0  0.3009791451426284 -0.2 0  0.3217959904068706 -0.2 0  0.3429592343744705 -0.2 0  0.3644746437000989 -0.2 0  0.3863480795092348 -0.2 0  0.4085854991020529 -0.2 0  0.4311929577241948 -0.2 0  0.4541766164908302 -0.2 0  0.4775427321916551 -0.2 0  0.5012976684604897 -0.2 0  0.5254479006641548 -0.2 0  0.5749999999999358 -0.2 0  0.5999999999998969 -0.2 0  0.6249999999998155 -0.2 0  0.6499999999998081 -0.2 0  0.6749999999997656 -0.2 0  0.6999999999997664 -0.2 0  0.7249999999997357 -0.2 0  0.7499999999996745 -0.2 0  0.7749999999995796 -0.2 0  0.7999999999995281 -0.2 0  0.8249999999994608 -0.2 0  0.8499999999994138 -0.2 0  0.8749999999993301 -0.2 0  0.8999999999992546 -0.2 0  0.9249999999991836 -0.2 0  0.9499999999990955 -0.2 0  0.9749999999990373 -0.2 0  0.9999999999989423 -0.2 0  1.024999999998847 -0.2 0  1.049999999998752 -0.2 0  1.074999999998672 -0.2 0  1.099999999998649 -0.2 0  1.124999999998554 -0.2 0  1.149999999998545 -0.2 0  1.174999999998451 -0.2 0  1.199999999998416 -0.2 0  1.224999999998348 -0.2 0  1.249999999998288 -0.2 0  1.274999999998288 -0.2 0  1.299999999998246 -0.2 0  1.324999999998369 -0.2 0  1.349999999998394 -0.2 0  1.37499999999845 -0.2 0  1.399999999998551 -0.2 0  1.424999999998531 -0.2 0  1.449999999998684 -0.2 0  1.474999999998642 -0.2 0  1.499999999998804 -0.2 0  1.524999999998773 -0.2 0  1.549999999998885 -0.2 0  1.574999999999013 -0.2 0  1.599999999999079 -0.2 0  1.624999999999119 -0.2 0  1.649999999999211 -0.2 0  1.674999999999224 -0.2 0  1.699999999999321 -0.2 0  1.724999999999342 -0.2 0  1.749999999999427 -0.2 0  1.774999999999474 -0.2 0  1.799999999999533 -0.2 0  1.824999999999605 -0.2 0  1.849999999999639 -0.2 0  1.874999999999735 -0.2 0  1.899999999999745 -0.2 0  1.924999999999841 -0.2 0  1.949999999999869 -0.2 0  1.974999999999947 -0.2 0  2 -0.1758823529412649 0  2 -0.1517647058824698 0  2 -0.12764705882371 0  2 -0.103529411764951 0  2 -0.07941176470620959 0  2 -0.05529411764745706 0  2 -0.03117647058865336 0  2 -0.007058823529918185 0  2 0.01705882352889865 0  2 0.04117647058779714 0  2 0.06529411764668486 0  2 0.08941176470558332 0  2 0.1135294117644398 0  2 0.137647058823337 0  2 0.1617647058822356 0  2 0.185882352941134 0  1.975000000000015 0.21 0  1.950000000000055 0.21 0  1.925000000000061 0.21 0  1.90000000000011 0.21 0  1.875000000000116 0.21 0  1.850000000000166 0.21 0  1.825000000000172 0.21 0  1.800000000000206 0.21 0  1.775000000000227 0.21 0  1.750000000000322 0.21 0  1.725000000000369 0.21 0  1.700000000000375 0.21 0  1.675000000000454 0.21 0  1.650000000000517 0.21 0  1.62500000000057 0.21 0  1.600000000000658 0.21 0  1.575000000000687 0.21 0  1.550000000000789 0.21 0  1.525000000000806 0.21 0  1.500000000000905 0.21 0  1.475000000001007 0.21 0  1.450000000001109 0.21 0  1.42500000000121 0.21 0  1.400000000001312 0.21 0  1.375000000001406 0.21 0  1.350000000001428 0.21 0  1.32500000000153 0.21 0  1.300000000001554 0.21 0  1.275000000001647 0.21 0  1.250000000001522 0.21 0  1.225000000001572 0.21 0  1.200000000001437 0.21 0  1.175000000001446 0.21 0  1.15000000000137 0.21 0  1.125000000001303 0.21 0  1.100000000001302 0.21 0  1.075000000001145 0.21 0  1.050000000001136 0.21 0  1.025000000000966 0.21 0  1.000000000000931 0.21 0  0.9750000000008732 0.21 0  0.9500000000008135 0.21
[...]
<PointData  Scalars="pressure"> 
<DataArray  type="Float64"  Name="pressure"  format="ascii">-9.0740960239092272e-01  -1.2643464607917299e+00  -1.2748372571277107e+00  -6.8168277746328931e-01  -5.8357914011485834e-01  -7.5018615800233313e-01  6.0687296400979573e-01  3.3516066247613419e-01  0.0000000000000000e+00  0.0000000000000000e+00  1.9122770202018982e-01  4.4520471244059984e-01  -1.1042123629977956e+00  -1.3475892573124628e+00  -5.6509853174969715e-01  -6.4896584701309079e-01  -1.3132618486148853e+00  -1.3187817908890860e+00  -1.3078299546796026e+00  -1.2852713249436658e+00  -1.2465573209783491e+00  -1.1904892208302111e+00  -1.1197415158428954e+00  -1.0346338035082971e+00  -9.3085590144188501e-01  -8.0937842051687947e-01  -6.7300577381010884e-01  -5.2830116119288717e-01  -3.7076035124271051e-01  -1.9629912191519872e-01  -2.0327039016683642e-02  1.6741136048380928e-01  3.5520960376394423e-01  5.4126259375126706e-01  7.3373162878202480e-01  9.1248520082371787e-01  1.0934816069494304e+00  1.2602640748231480e+00  1.4153461185159928e+00  1.5592242999575767e+00  1.6845636813678344e+00  1.7918455543517589e+00  1.8813726493237202e+00  1.9517231586819657e+00  1.9962800199101498e+00  2.0209883460818046e+00  2.0237189054371476e+00  2.0031902901158194e+00  1.9618611889137387e+00  1.8988248629511972e+00  1.8174884626290693e+00  1.7197286070631346e+00  1.6022968463437313e+00  1.4745735389949255e+00  1.3321342341085687e+00  1.1798856682011194e+00  1.0221050058082601e+00  8.5848099485717533e-01  6.9631347302839330e-01  5.3386159326784166e-01  3.6961381424648787e-01  2.2193316534768737e-01  7.0995675246536341e-02  -6.3716908623003457e-02  -1.8811061831980341e-01  -3.0136202246685428e-01  -4.0129808867319777e-01  -4.8280098577765257e-01  -5.5491052465786561e-01  -6.0541105840095866e-01  -6.4700874194938363e-01  -6.6961453803544591e-01  -6.8140258342161752e-01  -6.7899092986418297e-01  -6.6830107107181735e-01  -6.5445051138262345e-01  -6.1093269947385620e-01  -5.7302382393138607e-01  -5.3773642115508968e-01  -5.0768031366641275e-01  -4.8096563578278584e-01  -4.5806602688567238e-01  -4.3833094560892949e-01  -4.2163037506092033e-01  -4.0757388345900503e-01  -3.9542539064374399e-01  -3.8533202245434756e-01  -3.7672158372981590e-01  -3.6889972105607721e-01  -3.6216504256635962e-01  -3.5619627666030218e-01  -3.5140605058569108e-01  -3.4738137974555205e-01  -3.4456830250044590e-01  -3.4239860419512669e-01  -3.4263557762714364e-01  -3.4350543309914128e-01  -3.4656068295716708e-01  -3.5133067369487808e-01  -3.5797568726015055e-01  -3.6726098018505643e-01  -3.7834227402622228e-01  -3.9169482496045749e-01  -4.0661309220575731e-01  -4.2266453586321312e-01  -4.3956618311389423e-01  -4.5579054852130957e-01  -4.7128604929749207e-01  -4.8543567034749635e-01  -4.9718398358157451e-01  -5.0665711209807640e-01  -5.1431565040073057e-01  -5.1942035371759165e-01  -5.2313924685092594e-01  -5.2562655085224874e-01  -5.2715593978739617e-01  -5.2928298813952335e-01  -5.3195787939907591e-01  -5.3614518014843748e-01  -5.4272124263598520e-01  -5.5230427104207735e-01  -5.6498632810131555e-01  -5.8116768945642072e-01  -6.0044366955453976e-01  -6.2310664517525682e-01  -6.4867533087120111e-01  -6.7754514593321247e-01  -7.0957147464793568e-01  -7.4460269784966204e-01  -7.8272133555334833e-01  -8.2292743115730893e-01  -8.6434230010312474e-01  -9.0434297882410986e-01  -9.4764274507548518e-01  6.0615750803414048e-01  6.0505430644606550e-01  6.0270188240838518e-01  5.9934237797201595e-01  5.9428663929487457e-01  5.8737252149594399e-01  5.7795036264918143e-01  5.6580750049962192e-01  5.5006580326045129e-01  5.3066265711276817e-01  5.0711197405607678e-01  4.7871509154331671e-01  4.4739031863731915e-01  4.1233009793197783e-01  3.7622259048721690e-01  3.4080370262840759e-01  3.0792542197439726e-01  2.7853395392808367e-01  2.5542747215801281e-01  2.3740097420604284e-01  2.2634363846160940e-01  2.2042943550313729e-01  2.1865763474415476e-01  2.1863258692526963e-01  2.1965902524718761e-01  2.1886333505383260e-01  2.1413048297900739e-01  2.0225996845301955e-01  1.8330712485670533e-01  1.5630719341873234e-01  1.2260590693675708e-01  9.3793066731848937e-02  7.2784321187564366e-02  6.7533638153646755e-02  7.7252023653811480e-02  1.0007779720650191e-01  1.3225509122591761e-01  1.6848640601134890e-01  2.1293676705479855e-01  2.5835332518851967e-01  3.0076221200356157e-01  3.5370841405101389e-01  3.5515547637109662e-01  3.4286335557097114e-01  3.2453223777706453e-01  2.9880517612894369e-01  2.6546281231140101e-01  2.2297563127011316e-01  1.7501203994592471e-01  1.2287559688555239e-01  7.8619407162592803e-02  5.1667784143409508e-02  5.7552489848349396e-02  1.0636267921076029e-01  1.7420736580110155e-01  2.4152355291218006e-01  2.9497989333595981e-01  3.2258205831141107e-01  3.2864174279981356e-01  3.1259331856726008e-01  2.8134941548370579e-01  2.3476092850421401e-01  1.7204348226157082e-01  1.0740318238378153e-01  4.3254244745895447e-02  1.8679459363432583e-03  -1.5683606157917661e-02  -4.1026945191734209e-03  3.1391035401544476e-02  8.2883129926868998e-02  1.3495229763627586e-01  1.7784305343915796e-01  2.0987708817682416e-01  2.2485280908314551e-01  2.2196178331148239e-01  2.0647501801855192e-01  1.7440441164403331e-01  1.3028385881770632e-01  8.5106829655469729e-02  3.6613801912840999e-02  -4.4442501013854619e-03  -2.7883585593813633e-02  -3.3098504790064820e-02  -1.7003882311974004e-02  1.5536954249314052e-02  5.6877314598076184e-02  9.8136017105192819e-02  1.3305541366772425e-01  1.5799908005973629e-01  1.7117219379248844e-01  1.7212003640051379e-01  1.6178680412306329e-01  1.3951321022902444e-01  1.1103791295201212e-01  7.8177489913076312e-02  4.7144130970026683e-02  2.1601800559878172e-02  7.5005340917078571e-03  0.0000000000000000e+00  0.0000000000000000e+00  0.0000000000000000e+00  0.0000000000000000e+00  0.0000000000000000e+00  0.0000000000000000e+00  0.0000000000000000e+00  0.0000000000000000e+00  0.0000000000000000e+00  0.0000000000000000e+00  0.0000000000000000e+00  0.0000000000000000e+00  0.0000000000000000e+00  0.0000000000000000e+00  0.0000000000000000e+00  0.0000000000000000e+00  1.7334569251480077e-02  2.5352162004191572e-02  1.9878077044347197e-02  5.5278636077578701e-03  -1.6623990232613399e-02  -4.1907035469256053e-02  -6.2020309167433584e-02  -7.1823774879924654e-02  -6.7090760935101690e-02  -4.4267803865147622e-02  -7.5850982968316679e-03  3.3157442664995068e-02  7.8633345748516770e-02  1.1898590661108269e-01  1.4860938249269981e-01  1.6914304734767313e-01  1.7470723649945258e-01  1.6788721439635157e-01  1.4250976350953196e-01  1.0951259505071072e-01  6.8757007685489341e-02  2.7063797773477019e-02  -4.9866938004180326e-03  -2.1361315808737583e-02  -1.7965051495598575e-02  1.3245570107030070e-02  5.7534995152335261e-02  1.1522847326984416e-01  1.7087814892999284e-01  2.2191057644848453e-01  2.5592471626767732e-01  2.7374270101019160e-01  2.7355455272209356e-01  2.5384231665648904e-01  2.1173249705371477e-01  1.5953337915232255e-01  9.1190343233949187e-02  3.1710758753886174e-02  -2.2063290668259497e-03  3.0439899970077506e-03  4.6576682232993646e-02  1.1085754222354072e-01  1.7419952406946554e-01  2.2942944097360857e-01  2.7508097159329392e-01  3.1228635599336824e-01  3.3938106970491072e-01  3.5262359255537529e-01  3.4692475497512382e-01  3.1872653326408690e-01  2.7081705488150221e-01  2.0677488248026049e-01  1.4915739729827610e-01  1.1469107314121849e-01  1.0965822872804686e-01  1.2834411589635861e-01  1.5631200484236479e-01  2.2631770949526667e-01  2.6383591305614068e-01  3.1131936436552515e-01  3.5504090001321487e-01  3.9496449049276555e-01  4.1554292126853898e-01  4.2268563582929258e-01  4.0366652299721051e-01  3.6958617275901839e-01  3.2227655128625859e-01  2.6881175419719028e-01  2.1147297909098661e-01  1.6132836169440268e-01  1.1850488065211848e-01  8.3898039119220461e-02  6.0461199637538217e-02  4.4778010866417334e-02  3.7023089136226102e-02  3.5156210424772391e-02  3.9057831357380529e-02  4.7895470807815199e-02  6.2455437860042470e-02  8.3227060419796620e-02  1.0841384769248212e-01  1.3953399763621607e-01  1.7426177631896503e-01  2.1095203069840460e-01  2.4827084753458678e-01  2.8448770215348512e-01  3.1809329173116041e-01  3.4720846879253647e-01  3.7264826327950323e-01  3.9290641775007623e-01  4.0854468131530985e-01  4.2083714687391566e-01  4.2929784027814799e-01  4.3555482393957168e-01  4.3953332621664543e-01  4.4215153730538270e-01  4.4367685968631559e-01  4.4454932561370442e-01  4.4503127235847095e-01  4.4590898807057411e-01  4.4940412779387423e-01  4.5678779174136780e-01  4.6904085508671695e-01  4.8714028517607000e-01  5.1128526409992736e-01  5.4151682874459994e-01  5.7737566398837048e-01  6.1813159174288412e-01  6.6175146627165471e-01  7.0671176004945990e-01  7.5016102402101659e-01  7.8919633225675756e-01  8.2199204782513124e-01  8.4675890590738889e-01  8.5913524415261910e-01  8.6171985184429334e-01  8.5358429481597364e-01  8.3600663427872435e-01  8.1225893902951518e-01  7.8293831261480817e-01  7.5204873604815159e-01  7.2081568582723043e-01  6.9205764705196815e-01  6.6662341738609077e-01  6.4572427526040888e-01  6.2962169502117027e-01  6.1824904287028526e-01  6.1145000089158275e-01  6.0771649740904443e-01  6.0678582157722516e-01  3.3710987820971905e-01  3.4782187992856889e-01  3.5920778647532187e-01  3.5095090587411221e-01  3.0486259662395154e-01  2.3674327303076242e-01  1.4909657495463952e-01  8.1886807997363809e-02  4.6225006931141843e-02  5.0424972062364397e-02  9.0550687273006344e-02  1.3547107807023520e-01  1.6364363667971749e-01  1.7869579633547150e-01  1.8771855511309196e-01  1.9134155848872500e-01  3.3547682758188327e-02  -5.9066453822371495e-02  -1.5661935100990409e-03  1.1136135926709881e-02  4.3847386605933243e-02  1.8685924377297155e-02  3.9125663889272057e-02  -1.7862355060986582e-01  2.1754265254573196e-01  -2.6107134434670737e-01  -2.5202221293834343e-01  6.0205244064177064e-02  2.3200768047691125e-01  -2.9679070788180141e-02  -2.9638340248701189e-01  2.6601701142488732e-01  1.0082436049630039e-01  -3.4116396514255437e-01  2.8192846500975044e-01  -1.7822456514144597e-01  2.6082535382687166e-01  1.3660011532872690e-01  -6.5824570399654336e-02  1.5621952629121660e-01  2.0234164307749464e-01  3.5668298464769638e-01  4.8794287534476836e-02  6.7046274822316107e-02  -4.4753386442387584e-03  -8.5891308195728960e-03  1.4688822995932799e-01  8.5087680218041001e-02  1.7164687283897254e-01  1.3039819691492061e-01  1.9505673247116515e-01  -2.0756770726628859e-02  -2.0641174605614470e-02  6.7754428852442400e-02  -8.5700343417159271e-03  -2.1234960025519511e-02  -1.2854195744647393e-01  4.9021281021745466e-02  -2.8674692925091037e-02  -6.6994752814090841e-02  -5.4267324475005957e-03  -4.2583059638389494e-02  -1.5932958232065825e-01  1.9046098037311179e-02  3.6384723862145946e-01  4.0444719414735333e-02  5.3294878341261995e-02  3.3440868759058717e-02  1.4865258831916563e-02  2.5064070725715337e-01  3.5487072076910053e-01  2.6608282555311025e-01  8.0924526540841812e-02  1.4044136483589123e-01  3.5240190174519542e-01  -8.7675152739728410e-02  -1.0230373956709844e-01  -2.3548583973158764e-03  1.5381410288527719e-01  1.6238673121028782e-01  1.8216394807230304e-01  -9.0518596305354179e-02  -1.3197479748815460e-01  1.1264233381784612e-01  1.9167784068380225e-01  -1.7408599195745578e-01  -7.1126979104956342e-02  4.4388066351976604e-02  2.3954146572967402e-01  -3.0041488448898875e-02  -8.5109448564322593e-02  2.5816294131596523e-01  -1.8463685727252960e-01  4.0742848617717459e-02  1.4940805286886855e-01  2.7355515732662133e-01  2.5227961542847238e-01  -1.1171641773562297e-02  1.0081544734435549e-01  2.8302451023018044e-01  1.1780232681597037e-01  -3.9579678796586887e-02  1.8385733972379700e-01  -4.0201194724984082e-02  1.8807280674286161e-01  3.0103445275286141e-02  -1.1365845860047924e-01  -1.4797257114342741e-01  2.1403320831345055e-01  8.4359500286320041e-02  -6.0788728286567326e-02  -9.5082057837934122e-02  2.7004599719623379e-01  1.7211496287708203e-01  2.1035852335884918e-02  -1.2801461181497628e-01  2.1358560177905878e-03  -6.5417967018441242e-02  6.4703829816373071e-02  -3.9046233557211402e-02  2.0478578550260772e-02  1.4094190646986679e-01  5.3076590309828600e-02  -6.7414622895739837e-02  -4.6628276306823063e-02  1.1649778655094957e-01  1.0701721456328819e-01  2.0092253671619334e-02  4.4136569020146545e-02  1.3982758578781435e-01  1.8131390204251691e-01  3.6867220263805794e-01  -9.6206216418380647e-02  -5.3758302254998461e-02  3.2603237710396742e-02  -4.7967300806576470e-02  5.2931110692510865e-02  4.5331765300354210e-02  9.6914388487370287e-02  8.9496578501999866e-02  8.6729705104868673e-02  2.8905249143979150e-01  1.4691316887817957e-01  -1.7051610757300179e-01  1.6566204095657125e-01  1.8137255625221027e-01  1.0081600737122148e-01  -3.5647859325823317e-02  8.4532606832978266e-02  1.4947806100334404e-01  -1.6115237559883508e-01  -1.6922953518472478e-01  -1.6462246813426393e-01  -1.9690447664616686e-01  3.2909647807362474e-01  5.5545442912855278e-02  6.4097716549608871e-02  3.6113335390370660e-01  -2.8670737019978954e-02  2.9176212054038519e-01  2.5256736421405031e-02  2.1246875608355756e-01  1.7243144176535943e-01  7.9959639809094266e-03  1.6190126681894343e-01  3.2725815471265113e-01  -1.1098508804880135e-01  -6.1810206745875798e-02  2.4998441386654937e-02  -2.7687656357715623e-01  -2.3893007415630021e-02  -5.7457725535341120e-02  4.6120413982222525e-02  1.6909411603443056e-01  1.1116225707445826e-01  -5.7640243176749872e-02  4.7907579823127995e-02  -2.2287471250403956e-01  1.4857964141877333e-01  -8.5782530004554214e-03  -1.1978061951806307e-01  2.4139378490805977e-01  -2.2192948378048995e-02  3.7582475853196545e-02  3.2975593304828749e-01  2.2493859614837755e-01  4.9077046136635619e-02  -2.5171762263782055e-01  2.0773118043531327e-01  -7.7653273328337824e-02  1.5366925054296521e-01  2.0167195740906120e-02  1.3195109253411844e-01  9.5629194747002863e-02  -9.4988596510144338e-02  1.2003262271211627e-02  1.3325991228300635e-01  2.0795508728450743e-01  1.9459120987473247e-01  7.9767671379826516e-02  -1.1000172600155575e-01  3.6439429825645447e-01  2.8832157802483421e-02  1.3624474823976793e-01  6.0805753991978297e-03  -2.3223753336982750e-02  -8.1234535996210111e-02  9.1212668443920925e-02  9.6949933357180270e-03  1.6383888180328790e-01  6.2608819530356435e-02  1.8308649381317696e-01  1.0804664639473585e-02  9.0909482390253062e-03  -1.4701861205243064e-01  -9.1829404011558712e-03  3.0394239123826550e-01  1.7918223771127664e-01  2.2261828529629490e-02  -5.1022468186575055e-02  -4.1180294249849994e-02  -2.1004400750349456e-01  -1.0966690287022497e-01  -1.7784093618702485e-01  2.8459384043360621e-02  1.7463770653966126e-01  7.0047608816964702e-02  2.0440670329373600e-01  2.0478996369486810e-01  2.6125543893874358e-02  1.6623589172118591e-01  3.2124538321027696e-01  3.8951519001482769e-02  3.5194139590218297e-02  -1.3784157220572218e-01  -1.3658566626436086e-01  -1.9835414556137024e-01  6.6321016749694969e-02  1.3819330567889340e-01  2.3407705501076212e-01  2.9573072505298431e-01  -8.1899849633546656e-02  -9.2654289377619881e-02  2.5133083817945978e-01  1.6421580234472111e-01  3.1775021117153407e-01  6.1707610095187312e-02  1.3813878764723511e-01  2.5326380348513398e-02  9.7827878657715472e-02  2.2770179347098067e-02  3.1942501165804216e-01  -5.3023496690294452e-03  2.0070444671631626e-01  -3.2227887186067311e-02  2.9632687157402915e-01  -2.0460463889060414e-02  1.1533499123817997e-01  1.2837139967748379e-01  1.4871721818419453e-01  3.3800667196948425e-01  -1.1421005959700378e-01  -7.0831412362071355e-02  -7.8441747520566849e-03  6.6460738250469966e-03  2.7345930501588289e-01  -3.5956515793556264e-02  2.8347389794210809e-02  -7.7134766389004294e-03  6.5904612972380629e-03  -1.6945436943344849e-01  3.5169383525743632e-03  -3.6512078689974414e-02  9.6400965839305880e-02  3.2146514278054666e-01  1.0720345811911289e-01  6.8989233065827590e-02  -2.3060139725310583e-02  -1.4302602460632322e-01  3.5563944012054305e-01  -3.2039938415822522e-01  1.1719148388651754e-01  3.0172095055234999e-01  5.1114693839574919e-02  9.2080614420393780e-02  -1.3428908386724714e-01  -1.0657440179505780e-01  2.1350419218150501e-01  2.2302933909819858e-01  -8.1055049101341231e-02  1.0043588582909876e-01  3.9546793334659332e-02  1.7227032605754836e-01  -1.0216319675114750e-01  -3.3337889722432977e-02  -9.9218007413194295e-02  -3.5739090662136520e-02  3.3799110727721221e-01  1.1087176165163670e-01  7.0132961927377349e-02  4.0967268462803338e-02  1.3028174348365454e-01  3.8152692424602619e-01  -6.8070753472470281e-03  2.5249157248404619e-01  1.5127333641385757e-01  -1.7978090612980946e-01  -2.6577511635330918e-02  9.9179686768787245e-02  -9.7973285062885797e-03  -5.4868680824808676e-02  3.8015239031893147e-02  -1.8581699577649430e-01  6.2437958424805699e-02  2.3087393223038752e-01  -5.4257850539493266e-02  -7.2991733767932790e-02  1.6491563289964348e-01  2.4982234953093313e-01  1.4622024801779168e-01  1.8620769955417282e-01  7.5446959475802067e-03  -3.1277227050006837e-02  1.5587972305709188e-01  2.3091611169929940e-01  1.9425311843102924e-01  3.2206647612116440e-01  -1.2167253696643585e-01  -5.3697577096687280e-02  9.7784945737728543e-02  -8.6240594805134206e-03  -3.3779467180455616e-02  4.6167675651816432e-02  4.6917057436699487e-02  1.8550052165613296e-01  3.7943853896579649e-01  2.6812958037093276e-01  2.1427236926194121e-01  2.6986241653611664e-01  2.3422265580343127e-01  3.4850266595757956e-01  -3.1579294872606432e-02  1.8013654468097620e-01  2.2240059785449465e-01  1.5002167896494420e-01  -4.3377169725523426e-02  1.1113217554325804e-02  -1.7350248492254833e-01  2.8510717202188623e-01  5.8832402515032918e-02  -4.3074150596880280e-02  -8.6985512395702704e-03  1.0312934208058776e-01  -1.8021982783712220e-01  1.1357744492519026e-01  5.6034540408802774e-03  1.8231404196453171e-01  -1.9441997960299964e-02  -2.3804792839144856e-01  -1.4466539516449470e-01  2.4464182803474427e-01  6.1164036138659644e-02  7.8726072908726408e-02  1.0595317418402814e-01  -3.3295068004847203e-02  2.3819897214265317e-02  6.9118997751009562e-02  -9.9122647827550772e-02  2.3791288242488309e-01  6.4356315647241813e-02  1.7139613687613703e-01  -5.0027061745842136e-02  -1.4755375418207269e-02  4.7259864161379700e-02  -3.1732144457678552e-02  -5.5941476423740522e-03  1.7671670139570123e-01  -2.3484305060066045e-03  -3.9021662779555308e-02  -1.9406164012961205e-02  2.0602482005366740e-01  2.2644756621600884e-01  -2.2075537435442060e-02  5.9292762549417455e-02  1.9635638001249434e-01  2.0093195738959563e-01  -1.2556603872709224e-01  8.5883541419132341e-03  -7.7068735737320926e-02  6.1742585842490046e-02  -3.1849545402807050e-01  -2.4752067549989687e-01  2.3571777294624653e-02  2.0359381970126522e-01  7.8062251883832146e-02  6.8717266536706234e-02  -2.3761964571377686e-01  -1.0170448222261298e-01  -7.1490945082908583e-02  6.6433622141875412e-02  -3.8896218005916888e-02  5.1194205002996089e-02  -7.0002752011323999e-02  -1.7459496507691855e-01  1.8770808387849131e-01  1.9132285240399380e-01  -4.5879848712799105e-02  -5.4967257520925003e-02  8.9531068235106800e-02  1.8180314628796438e-02  1.5949772488919500e-01  -9.7927270218754678e-02  1.6868515570961912e-01  9.5086895450814557e-02  2.2385699368012890e-01  6.7434402077069397e-02  -3.7089728936411381e-02  1.1145863276538771e-01  8.0776792031973257e-02  -1.3707854658191068e-02  -1.1293931929834244e-01  -4.8002383424199845e-02  -3.0041708230790368e-03  -2.7916136913501881e-03  1.9724333432846780e-01  3.1842268720643652e-01  -4.5191138044139774e-02  1.7265196370282854e-01  1.0778370992929324e-01  2.5839651596813462e-01  -2.4900388661042629e-02  5.7187392910091964e-03  2.8538687162847276e-01  3.6724559118420812e-02  -3.1674753678697321e-02  2.7571686441235521e-01  3.0235860677113913e-01  -6.6991837734558413e-02  1.5415823996370109e-01  1.9156750539255380e-02  -1.89