<?xml version="1.0"?>
<VTKFile type="UnstructuredGrid"  version="0.1"  >
<UnstructuredGrid>
<Piece  NumberOfPoints="4826" NumberOfCells="9274">
<Points>
<DataArray  type="Float64"  NumberOfComponents="3"  format="ascii">0.004357787137616029 0.04980973490456689 0  2.448294430073374e-13 0.05 0  -0.004357787137128233 0.04980973490460956 0  -0.004357787137605706 -0.04980973490456778 0  -2.344882876518267e-13 -0.05 0  0.004357787137138513 -0.04980973490460866 0  -0.2 -0.2 0  0.55 -0.2 0  2 -0.2 0  2 0.21 0  0.55 0.21 0  -0.2 0.21 0  0.002180969368511386 0.0499524110790822 0  -0.002180969368010819 0.04995241107910407 0  -0.002180969368502513 -0.04995241107908259 0  0.002180969368021486 -0.0499524110791036 0  -0.006814597157868607 0.04953343583455493 0  -0.009254746151924908 0.04913603233537922 0  -0.01167226819248128 0.04861849601995923 0  -0.01406125267347753 0.04798209221420657 0  -0.01641585876037609 0.04722837686348521 0  -0.01873032967049142 0.04635919272846228 0  -0.02099900674774951 0.04537666487973717 0  -0.0232163432975249 0.04428319550226104 0  -0.0253769181477669 0.04308145802223435 0  -0.02747544890327456 0.04177439057082161 0  -0.02950680486062692 0.04036518880070902 0  -0.03146601955223609 0.03885729807305569 0  -0.0333483028888871 0.03725440503391573 0  -0.03514905287103829 0.03556042860074884 0  -0.03686386684027007 0.03377951038104073 0  -0.0384885522433417 0.0319160045464898 0  -0.04001913688258778 0.02997446718746979 0  -0.04145187862754741 0.0279596451738408 0  -0.04278327456411638 0.0258764645493049 0  -0.04401006955882648 0.02373001848771415 0  -0.04512926421732728 0.02152555484076227 0  -0.04613812221762188 0.01926846330748221 0  -0.04703417700009761 0.01696426225697686 0  -0.04781523779803292 0.0146185852365256 0  -0.04847939499380464 0.01223716719811699 0  -0.04902502478771633 0.009825830477053876 0  -0.04945079316803359 0.007390470556897103 0  -0.04975565917250895 0.004937041655599784 0  -0.04993887743343513 0.002471542168028815 0  -0.05000000000000002 4.319617580295088e-13 0  -0.04993887743347691 -0.002471542167184487 0  -0.04975565917259078 -0.004937041654775128 0  -0.0494507931681559 -0.007390470556078771 0  -0.04902502478787634 -0.00982583047625548 0  -0.048479394994003 -0.01223716719733118 0  -0.04781523779827011 -0.01461858523574979 0  -0.04703417700037211 -0.01696426225621582 0  -0.04613812221792003 -0.01926846330676828 0  -0.04512926421765873 -0.0215255548400674 0  -0.0440100695591652 -0.02373001848708596 0  -0.04278327456447995 -0.0258764645487038 0  -0.04145187862791943 -0.02795964517328926 0  -0.04001913688296869 -0.02997446718696123 0  -0.03848855224374843 -0.03191600454599933 0  -0.03686386684070041 -0.03377951038057109 0  -0.03514905287149575 -0.03556042860029668 0  -0.03334830288936536 -0.03725440503348761 0  -0.03146601955271191 -0.03885729807267038 0  -0.02950680486109357 -0.0403651888003679 0  -0.02747544890375341 -0.04177439057050667 0  -0.02537691814821718 -0.0430814580219691 0  -0.02321634329799415 -0.04428319550201502 0  -0.02099900674823039 -0.04537666487951462 0  -0.01873032967097447 -0.04635919272826711 0  -0.0164158587608675 -0.0472283768633144 0  -0.01406125267397827 -0.04798209221405982 0  -0.01167226819300015 -0.04861849601983465 0  -0.00925474615244812 -0.04913603233528067 0  -0.006814597158347743 -0.04953343583448901 0  0.006814597157865879 -0.04953343583455529 0  0.009254746151927097 -0.0491360323353788 0  0.01167226819248615 -0.04861849601995805 0  0.01406125267347329 -0.04798209221420779 0  0.01641585876037412 -0.04722837686348589 0  0.01873032967049753 -0.04635919272845981 0  0.02099900674775168 -0.04537666487973616 0  0.02321634329751479 -0.04428319550226633 0  0.02537691814775486 -0.04308145802224143 0  0.02747544890326525 -0.04177439057082774 0  0.02950680486061762 -0.04036518880071581 0  0.03146601955222702 -0.03885729807306303 0  0.0333483028888813 -0.03725440503392092 0  0.03514905287103634 -0.03556042860075076 0  0.03686386684026893 -0.03377951038104196 0  0.03848855224333972 -0.03191600454649218 0  0.04001913688258468 -0.02997446718747393 0  0.04145187862754592 -0.02795964517384301 0  0.04278327456411439 -0.02587646454930818 0  0.04401006955882308 -0.02373001848772046 0  0.04512926421732501 -0.02152555484076704 0  0.04613812221761816 -0.01926846330749109 0  0.04703417700009521 -0.01696426225698355 0  0.04781523779803072 -0.01461858523653281 0  0.04847939499380377 -0.01223716719812044 0  0.04902502478771547 -0.009825830477058137 0  0.04945079316803235 -0.007390470556905473 0  0.04975565917250727 -0.004937041655616693 0  0.0499388774334346 -0.002471542168039619 0  0.05 -4.403257272689309e-13 0  0.04993887743347755 0.002471542167171875 0  0.04975565917259197 0.004937041654763091 0  0.04945079316815711 0.007390470556070629 0  0.04902502478787914 0.009825830476241509 0  0.04847939499400326 0.01223716719733013 0  0.04781523779826526 0.01461858523576567 0  0.0470341770003617 0.01696426225624468 0  0.04613812221791593 0.01926846330677807 0  0.04512926421764892 0.02152555484008794 0  0.04401006955917259 0.02373001848707224 0  0.04278327456448917 0.02587646454868855 0  0.04145187862794129 0.02795964517325684 0  0.04001913688300011 0.02997446718691929 0  0.03848855224377164 0.03191600454597132 0  0.03686386684071396 0.03377951038055631 0  0.03514905287149344 0.03556042860029895 0  0.03334830288935025 0.03725440503350112 0  0.03146601955270811 0.03885729807267346 0  0.0295068048611069 0.04036518880035816 0  0.02747544890376348 0.04177439057050004 0  0.02537691814825449 0.04308145802194713 0  0.02321634329801946 0.04428319550200175 0  0.02099900674825754 0.04537666487950205 0  0.01873032967100249 0.04635919272825579 0  0.0164158587608822 0.04722837686330929 0  0.01406125267398022 0.04798209221405924 0  0.01167226819298624 0.04861849601983799 0  0.009254746152419701 0.04913603233528602 0  0.006814597158349477 0.04953343583448876 0  -0.187519667561546 -0.2 0  -0.1748316574821168 -0.2 0  -0.1619325192212862 -0.2 0  -0.148818726846035 -0.2 0  -0.1354867192353635 -0.2 0  -0.1219328603917423 -0.2 0  -0.1081534592978099 -0.2 0  -0.09414476589796635 -0.2 0  -0.07990295884356099 -0.2 0  -0.06542416303692469 -0.2 0  -0.05070442887227664 -0.2 0  -0.03573975841838681 -0.2 0  -0.02052606515274366 -0.2 0  -0.005059208927244263 -0.2 0  0.01066502121897589 -0.2 0  0.0266509074223695 -0.2 0  0.04290280916834216 -0.2 0  0.05942514657702952 -0.2 0  0.0762224259839136 -0.2 0  0.09329921648059353 -0.2 0  0.110660175036538 -0.2 0  0.1283100227830172 -0.2 0  0.1462535753141169 -0.2 0  0.1644957199166657 -0.2 0  0.1830414159977267 -0.2 0  0.2018957233573105 -0.2 0  0.2210637763821503 -0.2 0  0.2405507887204602 -0.2 0  0.260362079066015 -0.2 0  0.2805030358280229 -0.2 0  0.3009791451426284 -0.2 0  0.3217959904068706 -0.2 0  0.3429592343744705 -0.2 0  0.3644746437000989 -0.2 0  0.3863480795092348 -0.2 0  0.4085854991020529 -0.2 0  0.4311929577241948 -0.2 0  0.4541766164908302 -0.2 0  0.4775427321916551 -0.2 0  0.5012976684604897 -0.2 0  0.5254479006641548 -0.2 0  0.5749999999999358 -0.2 0  0.5999999999998969 -0.2 0  0.6249999999998155 -0.2 0  0.6499999999998081 -0.2 0  0.6749999999997656 -0.2 0  0.6999999999997664 -0.2 0  0.7249999999997357 -0.2 0  0.7499999999996745 -0.2 0  0.7749999999995796 -0.2 0  0.7999999999995281 -0.2 0  0.8249999999994608 -0.2 0  0.8499999999994138 -0.2 0  0.8749999999993301 -0.2 0  0.8999999999992546 -0.2 0  0.9249999999991836 -0.2 0  0.9499999999990955 -0.2 0  0.9749999999990373 -0.2 0  0.9999999999989423 -0.2 0  1.024999999998847 -0.2 0  1.049999999998752 -0.2 0  1.074999999998672 -0.2 0  1.099999999998649 -0.2 0  1.124999999998554 -0.2 0  1.149999999998545 -0.2 0  1.174999999998451 -0.2 0  1.199999999998416 -0.2 0  1.224999999998348 -0.2 0  1.249999999998288 -0.2 0  1.274999999998288 -0.2 0  1.299999999998246 -0.2 0  1.324999999998369 -0.2 0  1.349999999998394 -0.2 0  1.37499999999845 -0.2 0  1.399999999998551 -0.2 0  1.424999999998531 -0.2 0  1.449999999998684 -0.2 0  1.474999999998642 -0.2 0  1.499999999998804 -0.2 0  1.524999999998773 -0.2 0  1.549999999998885 -0.2 0  1.574999999999013 -0.2 0  1.599999999999079 -0.2 0  1.624999999999119 -0.2 0  1.649999999999211 -0.2 0  1.674999999999224 -0.2 0  1.699999999999321 -0.2 0  1.724999999999342 -0.2 0  1.749999999999427 -0.2 0  1.774999999999474 -0.2 0  1.799999999999533 -0.2 0  1.824999999999605 -0.2 0  1.849999999999639 -0.2 0  1.874999999999735 -0.2 0  1.899999999999745 -0.2 0  1.924999999999841 -0.2 0  1.949999999999869 -0.2 0  1.974999999999947 -0.2 0  2 -0.1758823529412649 0  2 -0.1517647058824698 0  2 -0.12764705882371 0  2 -0.103529411764951 0  2 -0.07941176470620959 0  2 -0.05529411764745706 0  2 -0.03117647058865336 0  2 -0.007058823529918185 0  2 0.01705882352889865 0  2 0.04117647058779714 0  2 0.06529411764668486 0  2 0.08941176470558332 0  2 0.1135294117644398 0  2 0.137647058823337 0  2 0.1617647058822356 0  2 0.185882352941134 0  1.975000000000015 0.21 0  1.950000000000055 0.21 0  1.925000000000061 0.21 0  1.90000000000011 0.21 0  1.875000000000116 0.21 0  1.850000000000166 0.21 0  1.825000000000172 0.21 0  1.800000000000206 0.21 0  1.775000000000227 0.21 0  1.750000000000322 0.21 0  1.725000000000369 0.21 0  1.700000000000375 0.21 0  1.675000000000454 0.21 0  1.650000000000517 0.21 0  1.62500000000057 0.21 0  1.600000000000658 0.21 0  1.575000000000687 0.21 0  1.550000000000789 0.21 0  1.525000000000806 0.21 0  1.500000000000905 0.21 0  1.475000000001007 0.21 0  1.450000000001109 0.21 0  1.42500000000121 0.21 0  1.400000000001312 0.21 0  1.375000000001406 0.21 0  1.350000000001428 0.21 0  1.32500000000153 0.21 0  1.300000000001554 0.21 0  1.275000000001647 0.21 0  1.250000000001522 0.21 0  1.225000000001572 0.21 0  1.200000000001437 0.21 0  1.175000000001446 0.21 0  1.15000000000137 0.21 0  1.125000000001303 0.21 0  1.100000000001302 0.21 0  1.075000000001145 0.21 0  1.050000000001136 0.21 0  1.025000000000966 0.21 0  1.000000000000931 0.21 0  0.9750000000008732 0.21 0  0.9500000000008135 0.21
[...]
<PointData  Scalars="pressure"> 
<DataArray  type="Float64"  Name="pressure"  format="ascii">-7.9218765607902419e-01  -6.3878863706832445e-01  -7.3948962432567455e-01  -1.1434911211675012e+00  -1.1357423920766425e+00  -8.5784884290743280e-01  4.3479378071005398e-01  7.0842812368246147e-02  0.0000000000000000e+00  0.0000000000000000e+00  2.1593488427184815e-01  5.1430339194574759e-01  -6.9698143616510855e-01  -6.3636419641645126e-01  -1.2065387737497981e+00  -1.0140837301106149e+00  -7.3834632271735934e-01  -7.5447573887791830e-01  -7.5827608259524681e-01  -7.5009815294195104e-01  -7.2870826640420183e-01  -6.9041581236509586e-01  -6.3791586943571843e-01  -5.7154659448085832e-01  -4.8718218594264140e-01  -3.8567629638595213e-01  -2.7003732277131087e-01  -1.4450525272134504e-01  -7.0421090296952727e-03  1.4582432147940608e-01  3.0157183502147972e-01  4.6729519167124012e-01  6.3370344859880667e-01  7.9803164763237588e-01  9.6716623489043418e-01  1.1236191976546865e+00  1.2802116231993630e+00  1.4227644627609635e+00  1.5531258394835645e+00  1.6713495487405248e+00  1.7707894705688103e+00  1.8521015173715523e+00  1.9147181887612417e+00  1.9580309649102721e+00  1.9757414005170435e+00  1.9734795044708433e+00  1.9493486518761178e+00  1.9021533904517895e+00  1.8348081140917791e+00  1.7458915250347971e+00  1.6396639121685219e+00  1.5180230464029518e+00  1.3770181616277237e+00  1.2272258497039281e+00  1.0631279247587448e+00  8.9022597761389666e-01  7.1307222869405473e-01  5.3094833655420082e-01  3.5166815040383226e-01  1.7302787925282576e-01  -7.3049766736157330e-03  -1.6819089799871162e-01  -3.3389065460756223e-01  -4.8078677571877654e-01  -6.1736161071911044e-01  -7.4211747118675642e-01  -8.5322689967549881e-01  -9.4486148660311409e-01  -1.0272241505807527e+00  -1.0865876761952018e+00  -1.1369584352220206e+00  -1.1676494890541327e+00  -1.1858973290356423e+00  -1.1905776030598443e+00  -1.1833898106538883e+00  -8.5905674125227349e-01  -8.2430869393760797e-01  -7.8687864834986598e-01  -7.4943345380975868e-01  -7.1417494620076472e-01  -6.8150532758027060e-01  -6.5178883206020088e-01  -6.2515004929721651e-01  -6.0146610931499767e-01  -5.8092591469500476e-01  -5.6292687534092789e-01  -5.4817015034713934e-01  -5.3621307940634566e-01  -5.2639563388333155e-01  -5.1876703355802467e-01  -5.1264938084341904e-01  -5.0803370876447806e-01  -5.0375653213303972e-01  -4.9975699946657492e-01  -4.9559986515942234e-01  -4.9034661936638291e-01  -4.8456218125157335e-01  -4.7747710518640057e-01  -4.6919328847846797e-01  -4.6028397611994987e-01  -4.4994214842273439e-01  -4.3945059015701049e-01  -4.2836572414167329e-01  -4.1748512630199552e-01  -4.0712696920772973e-01  -3.9743057335404430e-01  -3.8891314145603961e-01  -3.8184033834281589e-01  -3.7572947800940149e-01  -3.7134662394145218e-01  -3.6811831802925160e-01  -3.6605463385957177e-01  -3.6502853323076545e-01  -3.6507092605921471e-01  -3.6588105246439728e-01  -3.6754664156520966e-01  -3.7011079764991794e-01  -3.7357946594407154e-01  -3.7789834385274385e-01  -3.8326442684990247e-01  -3.8985329223212184e-01  -3.9762505194524955e-01  -4.0698842357197013e-01  -4.1776023195045864e-01  -4.3076072137714622e-01  -4.4568221789773577e-01  -4.6353138682637490e-01  -4.8411924836506970e-01  -5.0817290344547517e-01  -5.3563219924070360e-01  -5.6689433351186003e-01  -6.0176861833039552e-01  -6.4171886345878204e-01  -6.8211424105325180e-01  4.3417181965121843e-01  4.3331942186764111e-01  4.3131933827431518e-01  4.2829074404017481e-01  4.2333307798603265e-01  4.1601821768930392e-01  4.0539067082088026e-01  3.9102817735168988e-01  3.7162199323624090e-01  3.4709494491682230e-01  3.1687573748691855e-01  2.8008827025033017e-01  2.3938839201820669e-01  1.9342769723253242e-01  1.4597302018061328e-01  9.9140540322474255e-02  5.4200496072558987e-02  1.2116264706153233e-02  -2.2150320970772963e-02  -5.1708620015199686e-02  -7.1896283917725790e-02  -8.5154428454979739e-02  -8.9388427685910640e-02  -8.8310526859395916e-02  -7.7344923705382776e-02  -5.9257625118661193e-02  -3.3234345834164167e-02  2.0441358578208104e-03  4.3965604990590858e-02  9.1818532644404080e-02  1.4539110521906706e-01  1.9680603187558179e-01  2.4429916279572708e-01  2.8071481246999741e-01  3.0218119257842302e-01  3.0451042929419481e-01  2.8417406164357284e-01  2.4566343992395945e-01  1.9248461676537726e-01  1.3738414610647165e-01  9.7157582285879368e-02  5.8488776280635209e-02  5.5207681774492576e-02  5.2528026346161716e-02  4.9120105477753501e-02  5.0859499815966255e-02  6.6210814291291276e-02  9.7067082461217480e-02  1.3772817255585898e-01  1.7923798578725070e-01  2.1062335660245812e-01  2.2916498295111992e-01  2.3128507880703675e-01  2.1893399265769675e-01  1.9817364282639865e-01  1.6848030585806006e-01  1.3151613236957790e-01  8.7780894821572530e-02  4.0620650285176647e-02  -7.7234747467415533e-03  -4.4088519156208081e-02  -5.3190003493587108e-02  -3.2308310370641843e-02  1.3351163212466833e-02  6.8683212240688796e-02  1.1715840201787331e-01  1.5840665857565167e-01  1.8293575930083902e-01  1.9187280461214212e-01  1.8235800139451178e-01  1.6022925399397500e-01  1.2521394963208177e-01  7.8627463782635312e-02  2.8489905672870665e-02  -1.8787312943581783e-02  -5.6679117701670487e-02  -7.0459519380625654e-02  -6.6338602737916294e-02  -4.5531457561662582e-02  -8.1616637706032474e-03  3.1686574347572445e-02  6.8452907936993851e-02  9.8115821165213113e-02  1.1481670344827333e-01  1.1870891373144507e-01  1.0723100297313468e-01  8.4698276094726771e-02  5.0430160140114290e-02  1.0106290721900333e-02  -3.3477783117699653e-02  -7.3149862251469189e-02  -1.0021186104227923e-01  -1.1249125290335658e-01  -1.0773929521159727e-01  -8.8463460822900769e-02  -6.1401663387604673e-02  -3.2903335683874976e-02  -1.2248476894234760e-02  0.0000000000000000e+00  0.0000000000000000e+00  0.0000000000000000e+00  0.0000000000000000e+00  0.0000000000000000e+00  0.0000000000000000e+00  0.0000000000000000e+00  0.0000000000000000e+00  0.0000000000000000e+00  0.0000000000000000e+00  0.0000000000000000e+00  0.0000000000000000e+00  0.0000000000000000e+00  0.0000000000000000e+00  0.0000000000000000e+00  0.0000000000000000e+00  2.4232915591895315e-02  5.0730132934267369e-02  7.9166305986968083e-02  1.0409352730959510e-01  1.1942778317110384e-01  1.2581970153097297e-01  1.2136271651340994e-01  1.0439911793947518e-01  7.8054809468621686e-02  4.5504727612788363e-02  5.7725797835453240e-03  -2.8173337688770467e-02  -5.4281312293443192e-02  -6.5159636796522535e-02  -5.6756457263672858e-02  -3.2174278669890019e-02  4.3109746872130542e-03  4.4707056254032429e-02  8.5184805601606239e-02  1.1907165644223548e-01  1.4271649241750362e-01  1.5508136012767340e-01  1.5353333878622658e-01  1.3656219626199378e-01  1.1044743138534047e-01  7.3271585917210558e-02  3.1707263086556095e-02  -6.9287230293979176e-03  -3.7942784882397121e-02  -5.2540681905202717e-02  -4.3954808196280962e-02  -9.3632715004823737e-03  4.3891662369278356e-02  1.0269842926225568e-01  1.6146292446484295e-01  2.0128448769184726e-01  2.2560795243824736e-01  2.2767914972155032e-01  2.0361005880656799e-01  1.6034488512121972e-01  1.0695458595075095e-01  5.2493494858588959e-02  1.4944891930963161e-02  -1.4303021094868721e-03  5.9672564306675543e-03  2.3374750406683978e-02  5.0748265607644401e-02  7.8387888737359510e-02  1.0561973202179994e-01  1.3243969518207596e-01  1.5673816458266485e-01  1.8128463976675693e-01  2.0497587091508057e-01  2.2623586504169185e-01  2.4045854953215051e-01  2.4561285778393124e-01  2.3842516116758297e-01  1.8246900827518686e-01  1.4255134114607376e-01  9.3605438248184375e-02  4.7085642469956134e-02  4.4864364002551102e-03  -2.5092546186537674e-02  -4.5183191521944631e-02  -4.4908765546381874e-02  -3.3848598179217940e-02  -1.3115342979876866e-02  9.8012572425695051e-03  3.2161514400912819e-02  4.8156042453286800e-02  6.0372346298101044e-02  6.9607656929036490e-02  7.6223386586264111e-02  8.2194366029071431e-02  8.8878764871307872e-02  9.7994750391011159e-02  1.1033182460938436e-01  1.2604581251123081e-01  1.4676752622408545e-01  1.7218126319941177e-01  2.0106007579295224e-01  2.3396362868650716e-01  2.6884266294197584e-01  3.0412934135972297e-01  3.3897133480935676e-01  3.7132603491360450e-01  4.0078493687194233e-01  4.2583219917139131e-01  4.4750120999392995e-01  4.6480406413642855e-01  4.7838930149396230e-01  4.8933125984777526e-01  4.9725164553704265e-01  5.0340569213540798e-01  5.0764125553871320e-01  5.1060692534473895e-01  5.1248336539283756e-01  5.1359036450100126e-01  5.1418211880012887e-01  5.1511073775635552e-01  5.1839425363978786e-01  5.2509100625190597e-01  5.3599782255051853e-01  5.5184561557372069e-01  5.7271081948088920e-01  5.9838863790042629e-01  6.2829656447451543e-01  6.6149040711063123e-01  6.9585229645834701e-01  7.2986915712819500e-01  7.6067601271486796e-01  7.8550909305387207e-01  8.0291504025242821e-01  8.1134502654375384e-01  8.0685959588712630e-01  7.9265687995405776e-01  7.6820601569327163e-01  7.3523021622805507e-01  6.9726159364083673e-01  6.5533738762321747e-01  6.1341036516563530e-01  5.7298242242574693e-01  5.3667068545569396e-01  5.0533943585187413e-01  4.7999688545290159e-01  4.6081603526672604e-01  4.4746278336356216e-01  4.3965881574927457e-01  4.3553702451676063e-01  4.3464542743808043e-01  6.6118845221693118e-02  5.1723598446302976e-02  3.4071948749391900e-02  2.6729194172602645e-02  2.6066309258531314e-02  2.8621678776276860e-02  2.8025187173509561e-02  2.9838907909903255e-02  4.7028140142321324e-02  9.1330529240600297e-02  1.4371606706791323e-01  1.8978363019231470e-01  2.0786409548074880e-01  2.1626333894308544e-01  2.2018497407842119e-01  2.1617129547767366e-01  -7.7456319299044882e-02  -6.5531149356168369e-02  -9.2402703971973338e-02  -5.2588505310131664e-02  4.6770830101209235e-02  -8.3671446306630246e-02  -1.5767441837586654e-01  1.9822366487515980e-02  2.2208106190251379e-02  1.5103705474745163e-01  9.4012730998684596e-02  1.0864712085817617e-01  -1.6436891867652473e-02  1.3438575968845437e-01  2.0198028293452400e-01  -7.8740130427626759e-02  -2.1628802953487494e-01  2.4385405673892024e-01  -1.3014870698167375e-01  1.0843275154376367e-01  -5.2596006588036683e-02  7.6794531161144888e-02  -3.6696320694961593e-02  -1.9238378190009081e-01  -8.1851349594518494e-02  1.0940727892850631e-01  -7.6330026210862614e-02  2.3595214290419358e-01  4.1532046699053540e-02  -6.4368671495909816e-02  1.7828132104244385e-01  -7.1658663386682128e-02  1.1385859223462959e-01  -9.6372987546422664e-02  -9.6059797533951788e-02  -6.4594912172146982e-02  -4.1739599979361795e-02  2.0500826909252856e-01  -2.7766655403399131e-02  -2.8104106088150230e-02  1.2786252814574470e-01  -4.3679421001780697e-02  2.5203672770165522e-02  1.4743091725222957e-01  1.8152266787817489e-01  1.1834916841867719e-01  5.6966703073229576e-02  -8.9359488111297958e-02  4.5490296037429802e-02  8.6157776638856556e-02  2.6323625930522560e-01  -7.3165769552738610e-02  -3.4502497624455890e-02  -5.0412634561969857e-02  6.6879333953947753e-02  -1.0719951904941509e-01  -9.2155629231215744e-02  6.7353868954700302e-02  4.7318225221788107e-02  1.3956224708403159e-01  2.4940738962154796e-01  -1.6405284579868459e-01  -2.0676942102789744e-01  -1.4917781532947907e-01  1.7661747004457931e-01  1.2099757109349371e-01  -2.2936868483877743e-02  -2.9896225015766283e-02  2.9459112774797409e-02  9.7934104572621361e-02  2.1422562115345062e-01  5.4923704641834617e-02  2.4467051431833264e-02  -9.7054844187064435e-02  1.2763652979821363e-01  -1.2531216608085205e-01  2.1339624101249507e-02  -1.9865629563207257e-01  -2.5146712933606730e-01  8.8304201979674563e-02  5.5831792033331662e-02  2.4109213338447766e-01  -1.7567722134382299e-01  2.9000984288551145e-02  6.0395727434121527e-02  1.4116623572734499e-01  -1.8016329667487072e-01  7.9519245477749800e-02  3.2970100806922101e-02  2.3201453957436352e-01  1.4258788511541601e-01  1.5707636441058098e-01  1.0607652404432709e-01  -1.9209018438127473e-01  3.6435352699273359e-02  -3.6083725736633362e-02  -2.2812812879880656e-02  -7.6694773493136553e-02  4.0491148812153141e-02  -2.3689093061259801e-02  9.5591367583076570e-02  7.8859180475382526e-02  -2.8848130570265518e-02  2.0518151776723559e-01  -5.8088137598098170e-03  -1.7407913005536477e-01  1.0054111011481849e-01  7.6102483546646382e-04  1.5901141518430800e-01  -1.7356477522027447e-01  1.3289931588530127e-01  -1.3730646910200773e-02  1.2547216289167146e-01  -1.0293048973446589e-01  -2.5659419960178328e-02  1.0395560945331575e-01  -4.1672263479701939e-02  -2.3025822420014538e-04  2.3054822714593855e-02  -6.3535935216726819e-02  2.6216229913819507e-02  -2.0832792145849741e-02  -1.1534261094586561e-01  2.2367818695798744e-01  2.4442753454143296e-01  1.5288838772814634e-01  -1.3977947526011605e-01  6.6736872831198737e-02  -5.3501958867204033e-02  -5.1531145188527042e-02  4.9448986574558575e-02  -4.1722061315608884e-02  1.5794174806339417e-01  -8.1474340870343387e-02  5.4508658668752340e-02  2.6577378268284885e-01  7.1034258759504740e-02  1.1108724138619616e-01  -2.0563953986900911e-02  5.2357393313166266e-02  2.5964390112967994e-01  2.8815753373223250e-02  -3.2586283504144123e-02  -2.1631630874593362e-02  1.4957552409209388e-01  1.0169776033882223e-01  -2.0701288466253495e-01  1.6571136878357998e-01  2.5265726699288525e-02  5.6143659032810947e-02  2.0121368205196652e-01  -8.8582825672244569e-02  -1.9098414228202423e-01  1.2477152671424460e-01  -1.2932355079956298e-01  8.5177274298895887e-04  -1.0693714878082154e-01  -1.1529363369641107e-01  -1.7617052721087777e-03  2.1773618369889686e-01  -9.4176869042742459e-02  6.3170754272353608e-02  6.4134594606512687e-03  -1.0257980251212215e-01  -5.2485498092676823e-02  -8.2952557824302983e-02  -4.5687910499744376e-02  2.4891290185836672e-02  4.3821964808818357e-02  -1.8551074395791517e-01  -1.3869904066199540e-01  1.3991625707034244e-01  -7.7484500760035005e-02  1.2804147980977712e-01  -1.7875497968033327e-01  -1.0358724318207814e-01  -7.0091197586564249e-02  2.0161124712647920e-03  1.2634807109543194e-02  -2.3550696788656345e-02  1.7221074920443330e-01  9.8718934860169846e-02  -2.1491817557122309e-01  -2.3681522471901942e-01  1.5072520463986080e-01  5.1692005833669355e-02  3.9172234054683751e-02  2.5360297445930680e-01  -2.1907365493852120e-02  2.8655650503015218e-02  1.4992806990645799e-01  1.2692572624387052e-01  1.0883790734938550e-01  2.0443424717767253e-01  1.5380349185883466e-02  -3.2964989039163319e-02  1.3322743100245774e-01  7.9416495079983099e-04  2.2635392095833742e-01  6.3345853691229498e-02  1.4589105802064464e-01  -1.0006042797583067e-01  -2.1199794239042083e-01  7.0718076123293297e-02  1.1801617065749269e-01  2.5485790437444013e-02  1.7756028015240397e-01  1.0964160137477322e-01  1.6292298198588712e-01  -5.3676343053663221e-02  -1.0266231372501244e-01  1.8145251502655624e-01  -8.6004790517438812e-03  -1.8432727426037507e-01  -1.5609328663470193e-01  2.8541786214132295e-02  -1.3527727132853018e-01  1.0742363781113745e-01  2.4508789782591958e-01  1.9247279780356816e-01  1.4369872100812769e-01  1.2620623989815538e-01  1.8243649003872708e-02  2.7304514575595698e-02  -1.1748936151017322e-02  9.0938224862905023e-02  3.1133908943328705e-02  3.4548375986541140e-02  -2.8687357050382577e-02  9.4453814590876629e-03  -6.9080100520118856e-02  -1.4897399800707070e-01  -1.6571278966585046e-02  6.7746103279302861e-02  2.3846672263947080e-01  2.1250865082249701e-02  1.9454958541822099e-02  -1.4646246393245285e-01  1.8823713612803022e-01  1.1719218692557157e-01  2.2098944254533306e-01  -1.6489704672642164e-01  1.7581205811711675e-01  -1.1761216833053490e-02  1.2414267979365878e-02  -1.8165426988045585e-02  1.9839358556259991e-02  -3.8981085697419531e-02  -1.1072877067564077e-01  -1.5165737007414626e-01  1.7062232860507481e-01  1.6127340084622863e-01  -9.5625989918595417e-02  1.2777698782297145e-01  2.0930828928940434e-02  3.9647850602158384e-02  -4.6323411332162357e-03  4.0424323453580470e-02  -8.9602491249164529e-02  8.4825947042930172e-02  -4.2975969221823444e-02  -3.3304367112348666e-03  2.6123183507739062e-01  6.7014209548574816e-02  1.3394155340663449e-01  -2.4615168284929986e-01  -2.3846313988602891e-02  -7.3054005558427490e-02  2.4611116523443682e-01  1.0477923681429509e-01  1.3257719375190211e-01  -1.3398094974753041e-01  -8.6698921079426158e-02  -1.1496376388590144e-02  1.3350987073160223e-01  -1.2876612747965033e-01  1.4931522621431662e-01  -3.6768087959205456e-02  1.1725320135699997e-01  9.4038535672655854e-02  -2.9733940846977603e-02  7.0106789630342531e-02  3.9126901298859595e-02  -9.8953736472101664e-02  3.7710142015671619e-02  2.5725916527734710e-01  3.2756561045194053e-02  -1.4764472348045760e-02  -6.8977414094796075e-02  8.0536928576612168e-02  1.0809109249502144e-01  -5.4461788355830168e-02  -7.4575416419961807e-02  1.1162497817336901e-01  -1.2504505552818649e-02  -1.5218005776100932e-01  1.1786588995332568e-01  1.9303917549789598e-01  2.7218550499845996e-02  -2.5829318319635721e-02  -7.7387523154564708e-02  -7.3594117517881127e-02  7.1451776652440901e-02  -1.2832496432238219e-01  1.8454698324376198e-01  2.3703985026058133e-01  4.7442303663998028e-02  2.6474881438005853e-02  -9.0014468030135769e-02  -1.1081675765817083e-01  1.3599570507086506e-01  7.4641011487047160e-02  2.2019360864275717e-01  -2.3603411443982508e-01  -1.1768868912343639e-01  4.5962603698008198e-02  2.8204789841206852e-02  2.2426512415925917e-01  5.4477442667640974e-05  8.4221737275045588e-02  -6.5841512423496742e-02  -2.1668163634352616e-01  8.0021736958015940e-02  -1.2028448480216327e-02  5.2596489130085786e-02  2.7622141030990355e-01  -2.4885170886481872e-01  2.0027706637073692e-02  -1.0782628603973890e-01  1.2526972112844181e-01  7.2217776906252015e-03  1.2053887079430282e-01  4.8250660010155037e-02  -1.2389817673454584e-01  -9.3799585364856983e-02  -3.1317393503193158e-03  4.7904844551220849e-02  4.0872499371129731e-02  -1.3979357055714281e-01  1.2443704799189319e-01  1.9300861259599580e-01  -1.0804827359884711e-01  5.4471662309318485e-02  4.2313775770503465e-02  -1.9051997309949456e-02  -1.6229325623344262e-01  2.2625192265154764e-01  -1.4799366776422021e-01  1.2851843818568331e-01  7.9780697418341776e-02  -2.4206336903347184e-02  1.4541932004472863e-01  4.5676711771124971e-02  2.1711715979981483e-01  7.2264294334587018e-02  1.5152681978954285e-01  2.1151262797104522e-02  -2.6775795862473060e-02  2.3574665914961292e-02  1.4980178317206266e-01  1.8441460540193872e-02  1.6213257016528498e-01  9.3056998356432677e-02  3.0682677977112938e-02  -4.4471567429192109e-02  -3.1053913042882048e-02  -3.6593401695702958e-02  2.1960893768954964e-01  1.0681799943735422e-01  -2.1377069035715282e-01  -2.9089531205629966e-02  6.7685057446603733e-02  -2.2318425166612980e-02  8.4333479308685497e-02  1.8966664048739174e-01  2.0092635358204922e-01  -1.6686853777476679e-01  -2.6934047391360471e-02  -1.0135569403725429e-01  2.1603740153628401e-01  2.1565525551912770e-01  -4.1559192903703961e-02  -6.8374435742998355e-02  9.2332694666000303e-02  8.1148885356384162e-02  -7.5181336603729844e-03  1.3899865560487669e-02  1.3570226599439941e-01  -1.7000631582759759e-01  1.3191087289886996e-01  -9.2067614971282116e-02  1.8107258387906261e-01  -2.0947459838526125e-01  -1.4749950228651221e-02  -8.1499129197396922e-02  -3.4136491933748646e-02  -6.5451763558988435e-02  1.3218058721753859e-01  2.4590294360401017e-02  -4.7116457854731703e-02  1.7969714949563664e-01  6.8889657406176807e-02  -1.2334657913185057e-01  1.8097395837417590e-01  1.2860316104802944e-01  -4.5520568431835877e-02  -1.1772546147542587e-01  -3.0639889021147920e-02  -1.0802094992472773e-01  2.3710472432440705e-02  -1.5813311480588007e-02  4.6474147260286069e-03  9.2525271391790287e-02  -5.5985462782038517e-02  -5.0428393744625863e-02  1.8962153674994911e-01  -2.2197646213211387e-02  -4.7588869350102527e-03  -1.8866274941736413e-02  -3.6000754192075653e-03  1.1122806590423230e-02  -1.2508105641674266e-