<?xml version="1.0"?>
<VTKFile type="UnstructuredGrid"  version="0.1"  >
<UnstructuredGrid>
<Piece  NumberOfPoints="4826" NumberOfCells="9274">
<Points>
<DataArray  type="Float64"  NumberOfComponents="3"  format="ascii">0.004357787137616029 0.04980973490456689 0  2.448294430073374e-13 0.05 0  -0.004357787137128233 0.04980973490460956 0  -0.004357787137605706 -0.04980973490456778 0  -2.344882876518267e-13 -0.05 0  0.004357787137138513 -0.04980973490460866 0  -0.2 -0.2 0  0.55 -0.2 0  2 -0.2 0  2 0.21 0  0.55 0.21 0  -0.2 0.21 0  0.002180969368511386 0.0499524110790822 0  -0.002180969368010819 0.04995241107910407 0  -0.002180969368502513 -0.04995241107908259 0  0.002180969368021486 -0.0499524110791036 0  -0.006814597157868607 0.04953343583455493 0  -0.009254746151924908 0.04913603233537922 0  -0.01167226819248128 0.04861849601995923 0  -0.01406125267347753 0.04798209221420657 0  -0.01641585876037609 0.04722837686348521 0  -0.01873032967049142 0.04635919272846228 0  -0.02099900674774951 0.04537666487973717 0  -0.0232163432975249 0.04428319550226104 0  -0.0253769181477669 0.04308145802223435 0  -0.02747544890327456 0.04177439057082161 0  -0.02950680486062692 0.04036518880070902 0  -0.03146601955223609 0.03885729807305569 0  -0.0333483028888871 0.03725440503391573 0  -0.03514905287103829 0.03556042860074884 0  -0.03686386684027007 0.03377951038104073 0  -0.0384885522433417 0.0319160045464898 0  -0.04001913688258778 0.02997446718746979 0  -0.04145187862754741 0.0279596451738408 0  -0.04278327456411638 0.0258764645493049 0  -0.04401006955882648 0.02373001848771415 0  -0.04512926421732728 0.02152555484076227 0  -0.04613812221762188 0.01926846330748221 0  -0.04703417700009761 0.01696426225697686 0  -0.04781523779803292 0.0146185852365256 0  -0.04847939499380464 0.01223716719811699 0  -0.04902502478771633 0.009825830477053876 0  -0.04945079316803359 0.007390470556897103 0  -0.04975565917250895 0.004937041655599784 0  -0.04993887743343513 0.002471542168028815 0  -0.05000000000000002 4.319617580295088e-13 0  -0.04993887743347691 -0.002471542167184487 0  -0.04975565917259078 -0.004937041654775128 0  -0.0494507931681559 -0.007390470556078771 0  -0.04902502478787634 -0.00982583047625548 0  -0.048479394994003 -0.01223716719733118 0  -0.04781523779827011 -0.01461858523574979 0  -0.04703417700037211 -0.01696426225621582 0  -0.04613812221792003 -0.01926846330676828 0  -0.04512926421765873 -0.0215255548400674 0  -0.0440100695591652 -0.02373001848708596 0  -0.04278327456447995 -0.0258764645487038 0  -0.04145187862791943 -0.02795964517328926 0  -0.04001913688296869 -0.02997446718696123 0  -0.03848855224374843 -0.03191600454599933 0  -0.03686386684070041 -0.03377951038057109 0  -0.03514905287149575 -0.03556042860029668 0  -0.03334830288936536 -0.03725440503348761 0  -0.03146601955271191 -0.03885729807267038 0  -0.02950680486109357 -0.0403651888003679 0  -0.02747544890375341 -0.04177439057050667 0  -0.02537691814821718 -0.0430814580219691 0  -0.02321634329799415 -0.04428319550201502 0  -0.02099900674823039 -0.04537666487951462 0  -0.01873032967097447 -0.04635919272826711 0  -0.0164158587608675 -0.0472283768633144 0  -0.01406125267397827 -0.04798209221405982 0  -0.01167226819300015 -0.04861849601983465 0  -0.00925474615244812 -0.04913603233528067 0  -0.006814597158347743 -0.04953343583448901 0  0.006814597157865879 -0.04953343583455529 0  0.009254746151927097 -0.0491360323353788 0  0.01167226819248615 -0.04861849601995805 0  0.01406125267347329 -0.04798209221420779 0  0.01641585876037412 -0.04722837686348589 0  0.01873032967049753 -0.04635919272845981 0  0.02099900674775168 -0.04537666487973616 0  0.02321634329751479 -0.04428319550226633 0  0.02537691814775486 -0.04308145802224143 0  0.02747544890326525 -0.04177439057082774 0  0.02950680486061762 -0.04036518880071581 0  0.03146601955222702 -0.03885729807306303 0  0.0333483028888813 -0.03725440503392092 0  0.03514905287103634 -0.03556042860075076 0  0.03686386684026893 -0.03377951038104196 0  0.03848855224333972 -0.03191600454649218 0  0.04001913688258468 -0.02997446718747393 0  0.04145187862754592 -0.02795964517384301 0  0.04278327456411439 -0.02587646454930818 0  0.04401006955882308 -0.02373001848772046 0  0.04512926421732501 -0.02152555484076704 0  0.04613812221761816 -0.01926846330749109 0  0.04703417700009521 -0.01696426225698355 0  0.04781523779803072 -0.01461858523653281 0  0.04847939499380377 -0.01223716719812044 0  0.04902502478771547 -0.009825830477058137 0  0.04945079316803235 -0.007390470556905473 0  0.04975565917250727 -0.004937041655616693 0  0.0499388774334346 -0.002471542168039619 0  0.05 -4.403257272689309e-13 0  0.04993887743347755 0.002471542167171875 0  0.04975565917259197 0.004937041654763091 0  0.04945079316815711 0.007390470556070629 0  0.04902502478787914 0.009825830476241509 0  0.04847939499400326 0.01223716719733013 0  0.04781523779826526 0.01461858523576567 0  0.0470341770003617 0.01696426225624468 0  0.04613812221791593 0.01926846330677807 0  0.04512926421764892 0.02152555484008794 0  0.04401006955917259 0.02373001848707224 0  0.04278327456448917 0.02587646454868855 0  0.04145187862794129 0.02795964517325684 0  0.04001913688300011 0.02997446718691929 0  0.03848855224377164 0.03191600454597132 0  0.03686386684071396 0.03377951038055631 0  0.03514905287149344 0.03556042860029895 0  0.03334830288935025 0.03725440503350112 0  0.03146601955270811 0.03885729807267346 0  0.0295068048611069 0.04036518880035816 0  0.02747544890376348 0.04177439057050004 0  0.02537691814825449 0.04308145802194713 0  0.02321634329801946 0.04428319550200175 0  0.02099900674825754 0.04537666487950205 0  0.01873032967100249 0.04635919272825579 0  0.0164158587608822 0.04722837686330929 0  0.01406125267398022 0.04798209221405924 0  0.01167226819298624 0.04861849601983799 0  0.009254746152419701 0.04913603233528602 0  0.006814597158349477 0.04953343583448876 0  -0.187519667561546 -0.2 0  -0.1748316574821168 -0.2 0  -0.1619325192212862 -0.2 0  -0.148818726846035 -0.2 0  -0.1354867192353635 -0.2 0  -0.1219328603917423 -0.2 0  -0.1081534592978099 -0.2 0  -0.09414476589796635 -0.2 0  -0.07990295884356099 -0.2 0  -0.06542416303692469 -0.2 0  -0.05070442887227664 -0.2 0  -0.03573975841838681 -0.2 0  -0.02052606515274366 -0.2 0  -0.005059208927244263 -0.2 0  0.01066502121897589 -0.2 0  0.0266509074223695 -0.2 0  0.04290280916834216 -0.2 0  0.05942514657702952 -0.2 0  0.0762224259839136 -0.2 0  0.09329921648059353 -0.2 0  0.110660175036538 -0.2 0  0.1283100227830172 -0.2 0  0.1462535753141169 -0.2 0  0.1644957199166657 -0.2 0  0.1830414159977267 -0.2 0  0.2018957233573105 -0.2 0  0.2210637763821503 -0.2 0  0.2405507887204602 -0.2 0  0.260362079066015 -0.2 0  0.2805030358280229 -0.2 0  0.3009791451426284 -0.2 0  0.3217959904068706 -0.2 0  0.3429592343744705 -0.2 0  0.3644746437000989 -0.2 0  0.3863480795092348 -0.2 0  0.4085854991020529 -0.2 0  0.4311929577241948 -0.2 0  0.4541766164908302 -0.2 0  0.4775427321916551 -0.2 0  0.5012976684604897 -0.2 0  0.5254479006641548 -0.2 0  0.5749999999999358 -0.2 0  0.5999999999998969 -0.2 0  0.6249999999998155 -0.2 0  0.6499999999998081 -0.2 0  0.6749999999997656 -0.2 0  0.6999999999997664 -0.2 0  0.7249999999997357 -0.2 0  0.7499999999996745 -0.2 0  0.7749999999995796 -0.2 0  0.7999999999995281 -0.2 0  0.8249999999994608 -0.2 0  0.8499999999994138 -0.2 0  0.8749999999993301 -0.2 0  0.8999999999992546 -0.2 0  0.9249999999991836 -0.2 0  0.9499999999990955 -0.2 0  0.9749999999990373 -0.2 0  0.9999999999989423 -0.2 0  1.024999999998847 -0.2 0  1.049999999998752 -0.2 0  1.074999999998672 -0.2 0  1.099999999998649 -0.2 0  1.124999999998554 -0.2 0  1.149999999998545 -0.2 0  1.174999999998451 -0.2 0  1.199999999998416 -0.2 0  1.224999999998348 -0.2 0  1.249999999998288 -0.2 0  1.274999999998288 -0.2 0  1.299999999998246 -0.2 0  1.324999999998369 -0.2 0  1.349999999998394 -0.2 0  1.37499999999845 -0.2 0  1.399999999998551 -0.2 0  1.424999999998531 -0.2 0  1.449999999998684 -0.2 0  1.474999999998642 -0.2 0  1.499999999998804 -0.2 0  1.524999999998773 -0.2 0  1.549999999998885 -0.2 0  1.574999999999013 -0.2 0  1.599999999999079 -0.2 0  1.624999999999119 -0.2 0  1.649999999999211 -0.2 0  1.674999999999224 -0.2 0  1.699999999999321 -0.2 0  1.724999999999342 -0.2 0  1.749999999999427 -0.2 0  1.774999999999474 -0.2 0  1.799999999999533 -0.2 0  1.824999999999605 -0.2 0  1.849999999999639 -0.2 0  1.874999999999735 -0.2 0  1.899999999999745 -0.2 0  1.924999999999841 -0.2 0  1.949999999999869 -0.2 0  1.974999999999947 -0.2 0  2 -0.1758823529412649 0  2 -0.1517647058824698 0  2 -0.12764705882371 0  2 -0.103529411764951 0  2 -0.07941176470620959 0  2 -0.05529411764745706 0  2 -0.03117647058865336 0  2 -0.007058823529918185 0  2 0.01705882352889865 0  2 0.04117647058779714 0  2 0.06529411764668486 0  2 0.08941176470558332 0  2 0.1135294117644398 0  2 0.137647058823337 0  2 0.1617647058822356 0  2 0.185882352941134 0  1.975000000000015 0.21 0  1.950000000000055 0.21 0  1.925000000000061 0.21 0  1.90000000000011 0.21 0  1.875000000000116 0.21 0  1.850000000000166 0.21 0  1.825000000000172 0.21 0  1.800000000000206 0.21 0  1.775000000000227 0.21 0  1.750000000000322 0.21 0  1.725000000000369 0.21 0  1.700000000000375 0.21 0  1.675000000000454 0.21 0  1.650000000000517 0.21 0  1.62500000000057 0.21 0  1.600000000000658 0.21 0  1.575000000000687 0.21 0  1.550000000000789 0.21 0  1.525000000000806 0.21 0  1.500000000000905 0.21 0  1.475000000001007 0.21 0  1.450000000001109 0.21 0  1.42500000000121 0.21 0  1.400000000001312 0.21 0  1.375000000001406 0.21 0  1.350000000001428 0.21 0  1.32500000000153 0.21 0  1.300000000001554 0.21 0  1.275000000001647 0.21 0  1.250000000001522 0.21 0  1.225000000001572 0.21 0  1.200000000001437 0.21 0  1.175000000001446 0.21 0  1.15000000000137 0.21 0  1.125000000001303 0.21 0  1.100000000001302 0.21 0  1.075000000001145 0.21 0  1.050000000001136 0.21 0  1.025000000000966 0.21 0  1.000000000000931 0.21 0  0.9750000000008732 0.21 0  0.9500000000008135 0.21
[...]
<PointData  Scalars="pressure"> 
<DataArray  type="Float64"  Name="pressure"  format="ascii">-8.2437568390950122e-01  -8.7406596544098525e-01  -9.4717696039053600e-01  -9.4114144581928838e-01  -9.0896048754366299e-01  -8.2560305500470921e-01  4.7836111717974761e-01  1.0294654591665958e-01  0.0000000000000000e+00  0.0000000000000000e+00  2.1509816235775114e-01  4.5373990790631175e-01  -8.4754737598389185e-01  -9.0762038902072695e-01  -9.3281208026941465e-01  -8.6995259376296186e-01  -9.7457899078284782e-01  -9.9333210158830254e-01  -9.9802307624977460e-01  -9.9030238882298460e-01  -9.6819973900469158e-01  -9.2844046823403470e-01  -8.7388598109845650e-01  -8.0492826447088561e-01  -7.1719812861674281e-01  -6.1161063094096779e-01  -4.9101884359151704e-01  -3.6051598139083163e-01  -2.1730415149750110e-01  -5.7331399929929749e-02  1.0551592645738810e-01  2.7966905704796197e-01  4.5488098791696840e-01  6.2858069822234430e-01  8.0847907846857126e-01  9.7557543123487467e-01  1.1443191637114791e+00  1.2993669889456083e+00  1.4427561930989599e+00  1.5748555611222976e+00  1.6885702187752571e+00  1.7843666124450670e+00  1.8622180262702717e+00  1.9209688985417621e+00  1.9541674604063941e+00  1.9675065791781092e+00  1.9590114614003513e+00  1.9274017709962892e+00  1.8752357443799543e+00  1.8014741897881430e+00  1.7097569086300768e+00  1.6020065295741670e+00  1.4747024882661230e+00  1.3375997964910733e+00  1.1859248390026018e+00  1.0247447638243443e+00  8.5840207161481530e-01  6.8648276426658372e-01  5.1640630496745388e-01  3.4630951507138386e-01  1.7425906361201171e-01  1.9795963793734817e-02  -1.3873589345679879e-01  -2.8025214039846380e-01  -4.1155768215888328e-01  -5.3169662920404170e-01  -6.3857957056286585e-01  -7.2679253888749118e-01  -8.0586114531470288e-01  -8.6294632962594864e-01  -9.1122601163320238e-01  -9.4049669904014044e-01  -9.5835063167731482e-01  -9.6256448879550205e-01  -9.5675681668897161e-01  -7.8901366371897053e-01  -7.5367200271402890e-01  -7.1898127551432278e-01  -6.8553549853046247e-01  -6.5552403865956155e-01  -6.2833648342772874e-01  -6.0430176477443276e-01  -5.8325675912780550e-01  -5.6504399177154119e-01  -5.4963607206853748e-01  -5.3635449941077973e-01  -5.2554110099907669e-01  -5.1639601579872441e-01  -5.0834092096336769e-01  -5.0108436197908890e-01  -4.9415411217490940e-01  -4.8750847679172382e-01  -4.8050780845731395e-01  -4.7314116631353342e-01  -4.6553779755850988e-01  -4.5756515092782790e-01  -4.4923468440504188e-01  -4.4103231609891669e-01  -4.3282496179464020e-01  -4.2525459245079406e-01  -4.1825847685841883e-01  -4.1224004151972371e-01  -4.0719961976568192e-01  -4.0331389213593571e-01  -4.0059606957333038e-01  -3.9897317734164850e-01  -3.9811502830675677e-01  -3.9816474523421669e-01  -3.9854898769533414e-01  -3.9932613139416062e-01  -4.0006938678162840e-01  -4.0103027070983094e-01  -4.0171095261469453e-01  -4.0261170084483078e-01  -4.0355571410233781e-01  -4.0467842069149845e-01  -4.0668909637427270e-01  -4.0951993889313631e-01  -4.1355961668833036e-01  -4.1933261866447935e-01  -4.2719326518743506e-01  -4.3714617604581618e-01  -4.4965644155649487e-01  -4.6437582000693761e-01  -4.8202007425953847e-01  -5.0206926651845263e-01  -5.2544074239516925e-01  -5.5180339000291911e-01  -5.8175109481679466e-01  -6.1512900184321284e-01  -6.5195338377825129e-01  -6.9170070453973265e-01  -7.3395832971531993e-01  -7.7825084241695108e-01  4.7769772729242688e-01  4.7665018445197799e-01  4.7419729679430322e-01  4.7054340762201785e-01  4.6481271069046337e-01  4.5672057359398577e-01  4.4541536338684828e-01  4.3062297342948830e-01  4.1129117975752089e-01  3.8740025442571790e-01  3.5853305921837453e-01  3.2386967778227510e-01  2.8593844118794171e-01  2.4355949509598937e-01  2.0018660131958749e-01  1.5781776527509239e-01  1.1825578779316767e-01  8.2559101359524892e-02  5.4838727164041097e-02  3.3632430730696376e-02  2.2071060473444218e-02  1.9102197198860572e-02  2.4845332753826652e-02  3.6639610763364271e-02  5.5740531330493504e-02  7.9210567930359382e-02  1.0324855339907013e-01  1.2698266334867112e-01  1.4619851463201611e-01  1.5814140403001167e-01  1.6088309496540820e-01  1.5085972951001442e-01  1.2865006999725004e-01  9.2459987765074067e-02  5.3825953100239327e-02  1.6513952180011393e-02  -2.9079766048945429e-03  -6.5776078964530542e-03  1.1897481680819513e-02  3.7419508545625077e-02  7.0184743163817676e-02  1.3473881656674627e-01  1.6480217531643726e-01  1.9558944601980041e-01  2.1978803990619103e-01  2.3310720095709017e-01  2.3629029730722934e-01  2.3040411602970826e-01  2.1772164978094097e-01  1.9960710403596205e-01  1.7520371820503972e-01  1.4552350720166338e-01  1.1227171194102102e-01  7.4129184790567140e-02  3.6303477451946432e-02  1.0045413032925011e-02  -6.9908803497767966e-04  1.5738567469151338e-02  5.6312839955149220e-02  1.1538835791453689e-01  1.7180009118051473e-01  2.1219296029455523e-01  2.3398143893155052e-01  2.3299947138352003e-01  2.1563050357303698e-01  1.8525136415421453e-01  1.4007645931662699e-01  8.8416803725478318e-02  3.2351823244611513e-02  -1.4784113211042319e-02  -4.8944290798571065e-02  -5.4764645634389209e-02  -3.6573902204468961e-02  -1.0327979893262195e-03  4.4096108134793997e-02  8.6378536826926658e-02  1.1895124948876976e-01  1.4324149355496593e-01  1.5254847940130717e-01  1.4570016262711266e-01  1.2766055711114721e-01  9.7437530610677781e-02  6.0163162433363386e-02  2.1103844224158636e-02  -1.6838754732015730e-02  -4.5615148672899966e-02  -6.4135929280314197e-02  -6.7147056299392563e-02  -5.8087294706060159e-02  -3.8601111398218611e-02  -1.4535659538732700e-02  8.7521416797158996e-03  3.0709856936911369e-02  4.5728856506232207e-02  5.2892830519413084e-02  5.0428464295350264e-02  3.9042348347323029e-02  2.1655918553581132e-02  0.0000000000000000e+00  0.0000000000000000e+00  0.0000000000000000e+00  0.0000000000000000e+00  0.0000000000000000e+00  0.0000000000000000e+00  0.0000000000000000e+00  0.0000000000000000e+00  0.0000000000000000e+00  0.0000000000000000e+00  0.0000000000000000e+00  0.0000000000000000e+00  0.0000000000000000e+00  0.0000000000000000e+00  0.0000000000000000e+00  0.0000000000000000e+00  -1.8683662620778821e-02  -3.5510472418716660e-02  -4.5330692581507036e-02  -4.7331470731213209e-02  -3.6902886565020332e-02  -1.6945758678482692e-02  8.6936982915636410e-03  3.8398957972596862e-02  6.6316667799205115e-02  8.6100895580444481e-02  1.0123182005948628e-01  1.0542737221592084e-01  9.7512594649743170e-02  8.0138743147740582e-02  5.5176917055294164e-02  2.4792790805375168e-02  -5.7416689306687340e-03  -3.2495576507955606e-02  -4.5880782336928182e-02  -4.8168165308624125e-02  -3.0179870531613529e-02  4.0155092779814681e-03  4.8349317033086821e-02  9.9361994085968242e-02  1.4423273013087251e-01  1.7676077530111720e-01  1.9752877191113027e-01  1.9621710461624464e-01  1.7794059561432518e-01  1.3937015776930073e-01  8.9942042013507043e-02  3.3786605136094411e-02  -1.3818234554354722e-02  -3.6123602311376408e-02  -2.8735368856612254e-02  -8.0758664740814977e-04  4.1084537531947483e-02  8.2224026904288261e-02  1.2234685024009057e-01  1.5818291229404347e-01  1.8792079114298063e-01  2.1383995681910789e-01  2.2923793710614090e-01  2.3373528879615565e-01  2.1664620804331203e-01  1.8716739140309108e-01  1.4149924073860493e-01  9.7742126750368641e-02  6.5345847368085005e-02  4.9622508959407431e-02  5.0249882122562553e-02  6.2440495953773816e-02  7.6483987318552410e-02  9.1034517643520663e-02  1.0853373880148162e-01  1.3495548734894924e-01  1.6992902369312277e-01  2.6041034342306796e-01  2.8821379053550483e-01  3.0283250577259035e-01  2.9521078408497814e-01  2.6928749821560116e-01  2.2560870645004172e-01  1.7446111112201007e-01  1.1975453086977542e-01  6.6098496300509194e-02  2.2046782296746358e-02  -1.0493352669445550e-02  -3.3136008337901771e-02  -4.5326352347483757e-02  -4.9100929474111182e-02  -4.8799079435427647e-02  -4.4638348171426229e-02  -3.7949048904244748e-02  -2.7681834590944587e-02  -1.3869221214894650e-02  3.8196817293355543e-03  2.5893144201212623e-02  5.2311340742788384e-02  8.3623835647270342e-02  1.1777946524364701e-01  1.5563760978952226e-01  1.9518516064896752e-01  2.3448600078182688e-01  2.7282233092438413e-01  3.0819756615003141e-01  3.4016770882797909e-01  3.6691214515685594e-01  3.8975899662459396e-01  4.0759685206682150e-01  4.2116776063216599e-01  4.3177230043795728e-01  4.3909007950452700e-01  4.4457176478369326e-01  4.4816202845973208e-01  4.5061637054684750e-01  4.5213120729188383e-01  4.5304939952068413e-01  4.5359008527586275e-01  4.5442233768722823e-01  4.5766168305178473e-01  4.6448349297002556e-01  4.7578955296948278e-01  4.9244755356848752e-01  5.1460527586599059e-01  5.4218544952926406e-01  5.7467412105317262e-01  6.1123419343897545e-01  6.4979152701879916e-01  6.8882808800510520e-01  7.2548293964894417e-01  7.5691626648640298e-01  7.8148746503608812e-01  7.9752257498760926e-01  8.0084689237551421e-01  7.9436455363065661e-01  7.7733459045292530e-01  7.5125516481785615e-01  7.1954494293224924e-01  6.8301554058077374e-01  6.4568261072703392e-01  6.0891580578154281e-01  5.7547732295845599e-01  5.4624144998154001e-01  5.2234989363890250e-01  5.0403941374733596e-01  4.9113759048145567e-01  4.8344551684522147e-01  4.7925841011397396e-01  4.7824223180480369e-01  1.0006811013594785e-01  9.1883557917138467e-02  7.3230259338052661e-02  4.2843333900707582e-02  -2.1932428523104754e-02  -1.3237667481367971e-01  -2.4773443521522381e-01  -2.7708172415690485e-01  -2.1317831375686255e-01  -8.6209649783494505e-02  5.2104563302933206e-02  1.6722990077665290e-01  2.1780030250261298e-01  2.2350279504956003e-01  2.2024330880282347e-01  2.1784697635124203e-01  -9.1679133141926716e-03  -4.3455464498969788e-02  -1.2326774372955771e-02  -2.9294971409152618e-03  -8.9655307786165664e-02  3.0832164777596843e-02  -2.1672444657367257e-02  1.1128032971482205e-01  -1.5640467538836411e-01  6.4364974615550019e-02  1.0200013578385174e-01  -1.6537700119559084e-01  1.3712435962699954e-01  -9.5729363611354215e-02  4.7594988532662454e-02  2.4475457581876822e-01  5.9345123167275207e-02  1.2745508978404749e-01  -7.1411439788448394e-03  1.0616246976247688e-01  -1.3697993709758260e-01  -1.2890385833188070e-01  1.2218350792138259e-01  1.4664588708538273e-01  -5.5711302258521139e-02  -5.2205512059254493e-02  2.6062713254782621e-01  -3.8094701662052151e-02  2.0869442265745074e-02  -4.1646048078275537e-02  -5.4819384256897530e-02  2.1032525601711255e-01  2.2641381720661535e-01  2.4007179053558175e-01  1.6461837022223917e-02  -6.1906914108140108e-02  -3.9608196157724609e-02  -1.1822518573808444e-01  -2.5335696257821456e-02  -4.0907456468082790e-02  3.3045938941406471e-02  -2.5434118646130724e-02  4.1497504021433193e-03  -8.2932243132246269e-03  -5.2152540635696347e-02  -1.1689045138323771e-01  -4.2088634908118247e-02  9.2712128187293713e-02  1.9217061234788330e-01  -6.8991658343510828e-02  8.9150243911070876e-02  6.9548503757709518e-02  1.7041894274736666e-01  1.7365831755023115e-02  -3.5546602084267791e-02  1.0092897398068389e-01  1.1337841765116569e-01  -9.9709509233058782e-02  1.3118497644921756e-01  1.7583197272654327e-01  1.0587591515985635e-01  1.0727433059908638e-01  -1.2956453015142101e-02  2.8990187122789723e-02  4.8274469740737201e-02  -6.4583190205660486e-03  1.0332400511070954e-01  -1.2797439048348816e-01  -2.7583378442999196e-01  -1.0327040827388062e-02  4.3304850699728774e-02  -1.0371547234428356e-01  -5.7260720597525280e-03  6.4460834679218024e-02  -5.4411214516175206e-02  2.2644936375999686e-01  1.2733358947378795e-02  -5.2236464586519950e-03  1.7386392550493820e-01  -8.5250479127619391e-02  -2.5251506552500347e-01  9.1812211120707490e-02  1.3448567678173523e-01  2.5602558441572421e-01  -1.2687692556753377e-01  -4.0046524499077224e-02  6.5189212290318321e-02  1.9016107869893817e-01  -4.6982828887035026e-02  1.7967934012695053e-01  1.2547241067068843e-01  -1.4384276122870878e-02  -9.1823028164728746e-02  7.9547227576848636e-02  1.0259791595445396e-01  9.2982560628719915e-02  2.4546876475687884e-01  -5.6847458140849343e-02  -9.8296112053592677e-02  3.2408543111359468e-02  1.9073780102778987e-01  1.0232900242586533e-01  5.5689144488893103e-02  6.1163872116020791e-02  -7.4162844096431368e-02  -3.9078820470847084e-02  -1.1357750569754674e-01  -6.4734084087583688e-02  7.3627680572269399e-02  1.3311180067668543e-01  -7.5099734808715610e-02  -2.3646608758227126e-02  -6.0843140883289258e-02  1.5815359877106727e-01  -5.3812213480299541e-02  4.4341779549673284e-02  -2.4452229029693160e-02  -3.0798942206358034e-02  -1.0666061226597089e-01  -5.3145729769927583e-02  2.4102163665566786e-01  -4.9164181709616131e-02  5.7850238494915385e-02  8.1240149740589074e-02  2.6342515330264722e-02  -2.5103419165217574e-02  2.0275794603850875e-01  6.7383249017401156e-02  1.9485072766277001e-01  -1.1422771606712136e-01  -2.0467145676535281e-01  -4.5389720953660411e-03  -2.0059868806261880e-01  6.7345944311790668e-02  1.7902997804266285e-01  5.3584112534015099e-02  1.7175354761740445e-02  1.9289013487220064e-02  1.0295694215967170e-01  -6.7225252098844543e-02  1.1199892034625167e-01  7.9210860307164982e-02  6.4586134651339680e-02  -2.4090037836542154e-04  -1.2926744544697971e-01  2.3052375222876281e-01  1.1525202612267518e-02  8.6970687579913195e-03  -1.2738928460069363e-01  -5.0460921852168390e-02  -5.5508434488769895e-02  1.6815563813857279e-01  3.8599699459013086e-02  2.5699811566693737e-02  7.5189345712173575e-02  2.0200516657264247e-01  1.4498024097525231e-01  -4.2998511026774593e-02  -1.0408649714924602e-01  1.8244635338811835e-01  2.7181871315804285e-02  3.5183508665347980e-02  2.3278513195711217e-01  7.5730536126858471e-03  4.7612374213079615e-02  2.4808602799587423e-01  -7.3922973149362775e-02  -1.5131058470754952e-01  2.2770424957518232e-01  3.6727867017596547e-02  1.7571669180560301e-01  8.8486239171058231e-02  9.8207272888461983e-02  1.2088716156619252e-02  1.2175042908707440e-02  -3.0285226216476144e-02  -9.5744989379529979e-02  -9.8106278202434685e-02  3.4243523942474589e-02  1.1406781089931847e-01  -7.3001853762602417e-02  -1.8138830504992223e-01  2.4132926736539673e-01  5.2488265876585109e-02  -3.1782366096283821e-02  1.4623236072704149e-01  -3.3959632307164776e-02  1.4248005461605878e-01  3.7904715430472802e-02  -1.1664561683789359e-02  -7.4067320799566058e-02  -1.5902634948158220e-01  -5.6200854210187966e-02  3.2083841889517434e-02  2.1099463624148129e-01  1.2798189730481859e-02  -1.2568455950838825e-01  -5.7209755020709761e-02  5.1011512845066671e-02  -1.0969699056450857e-01  3.6489782806878944e-02  -5.1431458454680367e-03  5.4564290901216256e-02  -1.2137987938549331e-01  3.4849175517874593e-02  2.8352972158869276e-02  8.6891235631094826e-03  -2.8541331751951549e-02  -1.7304917314844692e-02  2.4575285308264486e-01  9.8302545637041668e-03  -3.8100348099408182e-02  -6.1028282115285784e-02  2.3276965349113561e-02  2.3189748485887434e-02  2.0263568067982338e-01  8.3818711512177707e-02  -1.0267722657803277e-01  6.1150000953663519e-02  8.9093006451036585e-02  1.4558276610801724e-01  -1.1342889899867110e-01  -1.5634820978057293e-01  -1.2548583748146385e-02  2.2427330478998284e-01  6.0651836036886474e-02  1.3952034314703740e-01  -9.6343539602380762e-02  -1.1844300473365767e-01  2.5771414681350296e-01  -5.8963591160838623e-02  7.8041785827859228e-02  6.4805977794500464e-03  -1.6863584689379912e-01  1.3987783200953316e-01  1.8894094304163725e-01  1.4069961012910701e-01  1.5069909258584177e-01  1.4348343941819522e-01  -1.6959956382487376e-01  6.4307814884434836e-02  6.3988340355255663e-02  2.0538976144234133e-01  1.0490815374458692e-01  -1.5663109281394758e-01  -3.4003002728029093e-02  -3.1320102568464479e-02  1.2823350810108158e-01  1.9161605283796879e-01  1.3307473218231808e-02  1.3259429256880839e-01  -6.7269178072775812e-02  7.5015148354735328e-02  -7.4639074825802176e-02  -4.8583966666618846e-03  -4.5543274779435435e-02  1.1600500584526710e-03  1.9326955729354581e-01  9.1987812521132528e-02  -7.4708334407553686e-02  1.5860707692338519e-01  -5.0095855047947585e-02  1.4159075888659609e-01  1.0997771111711842e-01  1.7570893438862242e-02  1.8303464433377367e-02  -9.2587520956686931e-02  5.7440356359854387e-02  9.8909286336417795e-02  7.6297110918555441e-02  1.2849898959739439e-01  1.0634511570115246e-01  2.6335594557940178e-01  1.3652352351655926e-02  -1.1692029417006265e-01  9.6197850856915970e-02  -1.6571841339169660e-01  9.3148391354817048e-02  1.4321518162786523e-01  -7.1264979548113713e-02  4.9689153697083988e-02  1.3332677354786394e-02  -1.8229324704745375e-01  -7.4887684794910883e-02  -4.0825794166444870e-02  1.4506096381759800e-01  1.1673830731487186e-01  4.1689255186376825e-02  1.1299233699930089e-01  -5.1752317554386418e-02  1.8823114482152764e-02  1.4663815044469782e-02  9.7540982506485033e-02  1.9626133405936971e-01  -3.4415681848241168e-02  -3.5033550386256669e-02  4.2929289018274273e-02  -1.1066887948342541e-02  -2.0881032130038710e-01  3.6335681565651312e-02  1.4149319149110445e-01  -9.4644124890987488e-02  -2.3443389396749478e-01  3.3782110589213266e-02  6.2191640624011890e-02  8.6328550399763226e-02  -6.8907925970374012e-02  -6.9516714607449334e-02  -7.5007066248505713e-02  -1.7123547668613660e-02  9.3838700928139777e-03  8.2976065954625464e-02  -1.2256136510672607e-02  1.3202701535635133e-01  -2.6953898700012368e-02  2.2938355908446748e-01  -6.1066161298374722e-02  7.1211226431079563e-02  -8.7926088676268832e-02  1.7316349699997596e-02  1.9653814017932944e-01  2.1413203955183124e-01  -4.7981552579142425e-02  2.3982856140356440e-01  1.9398136770566829e-01  4.5838903159640725e-02  6.0489872095232516e-02  -1.3484384171909197e-01  2.6770775074136910e-01  -1.8824906295368503e-02  -8.3663810523467233e-02  1.3161010909425529e-02  2.4141958536239932e-01  1.2097058161205188e-01  -3.1884349160109092e-02  2.0065771379600397e-01  -1.6381413926796715e-01  8.1297256796645817e-02  1.7488309860193094e-01  -1.6392383882540530e-02  -7.2681651502793959e-02  2.0614273365575940e-02  9.8001109343670553e-02  -5.1239038745538746e-03  1.9163118616672056e-01  1.8468893404219647e-01  8.5704361627378489e-02  9.1755419025551802e-02  -2.9509675756355137e-02  -5.0026105250421872e-02  -5.8392553888810220e-02  -5.3771647402217262e-03  2.4970817437980602e-01  3.3601122201900618e-02  -8.6216571689811700e-02  -6.9506201482104985e-02  2.1685247757080980e-01  -7.9165037900231980e-02  9.9973239900328525e-02  -6.8208364068473734e-02  -1.8739516386542997e-02  2.5129466892140594e-02  -6.3988537069765303e-02  3.2391884212113378e-02  2.5443535627748715e-01  4.8946982909352073e-02  -8.6654500737371923e-02  1.9548906820589909e-01  -5.4653784550081665e-02  1.2291238752965630e-01  -1.1779678550212097e-03  1.8765612139050558e-01  2.7780314390589635e-03  1.9846597684361475e-01  6.8775162211202667e-02  4.6578884639822460e-02  7.3554463255312313e-02  -1.7902016760771404e-02  1.1767284804694798e-01  1.7406077223777933e-01  1.4922862624314728e-01  7.9693407449128090e-02  1.2243273509824173e-02  -1.3841874660456543e-01  8.7743659172932906e-02  2.5848111249765379e-02  1.1838815084103606e-01  3.0990853986022034e-02  -2.4488825571942756e-02  -6.4608134165151196e-02  -3.3785885594540231e-02  1.7287429829325837e-02  3.3111776934112040e-02  -6.6021703624776662e-02  1.3642203947311557e-01  -3.1927393831605193e-02  1.6713030291706488e-01  -4.9351961232524728e-02  -1.7649729238188161e-01  -5.2753379809883962e-02  -6.7411764938006630e-02  -1.8171727828059284e-01  -4.1470647329939762e-02  -4.2915986849433076e-02  -7.4302844677144875e-02  1.6656041205712116e-01  1.1554877790070069e-01  -4.8864776060474895e-02  -1.9114851333680346e-02  -6.7610607835730224e-02  4.6255984918767624e-02  -9.6827346740965506e-02  -1.4423429205554589e-01  -5.1418180944487080e-02  1.5412210060818577e-02  6.5422252496553701e-02  2.6755794071251865e-01  -4.8121375258489099e-02  -7.0265654005954442e-02  2.2785445504560936e-01  1.4030831022229018e-01  -2.5204875424293741e-02  