<?xml version="1.0"?>
<VTKFile type="UnstructuredGrid"  version="0.1"  >
<UnstructuredGrid>
<Piece  NumberOfPoints="4826" NumberOfCells="9274">
<Points>
<DataArray  type="Float64"  NumberOfComponents="3"  format="ascii">0.004357787137616029 0.04980973490456689 0  2.448294430073374e-13 0.05 0  -0.004357787137128233 0.04980973490460956 0  -0.004357787137605706 -0.04980973490456778 0  -2.344882876518267e-13 -0.05 0  0.004357787137138513 -0.04980973490460866 0  -0.2 -0.2 0  0.55 -0.2 0  2 -0.2 0  2 0.21 0  0.55 0.21 0  -0.2 0.21 0  0.002180969368511386 0.0499524110790822 0  -0.002180969368010819 0.04995241107910407 0  -0.002180969368502513 -0.04995241107908259 0  0.002180969368021486 -0.0499524110791036 0  -0.006814597157868607 0.04953343583455493 0  -0.009254746151924908 0.04913603233537922 0  -0.01167226819248128 0.04861849601995923 0  -0.01406125267347753 0.04798209221420657 0  -0.01641585876037609 0.04722837686348521 0  -0.01873032967049142 0.04635919272846228 0  -0.02099900674774951 0.04537666487973717 0  -0.0232163432975249 0.04428319550226104 0  -0.0253769181477669 0.04308145802223435 0  -0.02747544890327456 0.04177439057082161 0  -0.02950680486062692 0.04036518880070902 0  -0.03146601955223609 0.03885729807305569 0  -0.0333483028888871 0.03725440503391573 0  -0.03514905287103829 0.03556042860074884 0  -0.03686386684027007 0.03377951038104073 0  -0.0384885522433417 0.0319160045464898 0  -0.04001913688258778 0.02997446718746979 0  -0.04145187862754741 0.0279596451738408 0  -0.04278327456411638 0.0258764645493049 0  -0.04401006955882648 0.02373001848771415 0  -0.04512926421732728 0.02152555484076227 0  -0.04613812221762188 0.01926846330748221 0  -0.04703417700009761 0.01696426225697686 0  -0.04781523779803292 0.0146185852365256 0  -0.04847939499380464 0.01223716719811699 0  -0.04902502478771633 0.009825830477053876 0  -0.04945079316803359 0.007390470556897103 0  -0.04975565917250895 0.004937041655599784 0  -0.04993887743343513 0.002471542168028815 0  -0.05000000000000002 4.319617580295088e-13 0  -0.04993887743347691 -0.002471542167184487 0  -0.04975565917259078 -0.004937041654775128 0  -0.0494507931681559 -0.007390470556078771 0  -0.04902502478787634 -0.00982583047625548 0  -0.048479394994003 -0.01223716719733118 0  -0.04781523779827011 -0.01461858523574979 0  -0.04703417700037211 -0.01696426225621582 0  -0.04613812221792003 -0.01926846330676828 0  -0.04512926421765873 -0.0215255548400674 0  -0.0440100695591652 -0.02373001848708596 0  -0.04278327456447995 -0.0258764645487038 0  -0.04145187862791943 -0.02795964517328926 0  -0.04001913688296869 -0.02997446718696123 0  -0.03848855224374843 -0.03191600454599933 0  -0.03686386684070041 -0.03377951038057109 0  -0.03514905287149575 -0.03556042860029668 0  -0.03334830288936536 -0.03725440503348761 0  -0.03146601955271191 -0.03885729807267038 0  -0.02950680486109357 -0.0403651888003679 0  -0.02747544890375341 -0.04177439057050667 0  -0.02537691814821718 -0.0430814580219691 0  -0.02321634329799415 -0.04428319550201502 0  -0.02099900674823039 -0.04537666487951462 0  -0.01873032967097447 -0.04635919272826711 0  -0.0164158587608675 -0.0472283768633144 0  -0.01406125267397827 -0.04798209221405982 0  -0.01167226819300015 -0.04861849601983465 0  -0.00925474615244812 -0.04913603233528067 0  -0.006814597158347743 -0.04953343583448901 0  0.006814597157865879 -0.04953343583455529 0  0.009254746151927097 -0.0491360323353788 0  0.01167226819248615 -0.04861849601995805 0  0.01406125267347329 -0.04798209221420779 0  0.01641585876037412 -0.04722837686348589 0  0.01873032967049753 -0.04635919272845981 0  0.02099900674775168 -0.04537666487973616 0  0.02321634329751479 -0.04428319550226633 0  0.02537691814775486 -0.04308145802224143 0  0.02747544890326525 -0.04177439057082774 0  0.02950680486061762 -0.04036518880071581 0  0.03146601955222702 -0.03885729807306303 0  0.0333483028888813 -0.03725440503392092 0  0.03514905287103634 -0.03556042860075076 0  0.03686386684026893 -0.03377951038104196 0  0.03848855224333972 -0.03191600454649218 0  0.04001913688258468 -0.02997446718747393 0  0.04145187862754592 -0.02795964517384301 0  0.04278327456411439 -0.02587646454930818 0  0.04401006955882308 -0.02373001848772046 0  0.04512926421732501 -0.02152555484076704 0  0.04613812221761816 -0.01926846330749109 0  0.04703417700009521 -0.01696426225698355 0  0.04781523779803072 -0.01461858523653281 0  0.04847939499380377 -0.01223716719812044 0  0.04902502478771547 -0.009825830477058137 0  0.04945079316803235 -0.007390470556905473 0  0.04975565917250727 -0.004937041655616693 0  0.0499388774334346 -0.002471542168039619 0  0.05 -4.403257272689309e-13 0  0.04993887743347755 0.002471542167171875 0  0.04975565917259197 0.004937041654763091 0  0.04945079316815711 0.007390470556070629 0  0.04902502478787914 0.009825830476241509 0  0.04847939499400326 0.01223716719733013 0  0.04781523779826526 0.01461858523576567 0  0.0470341770003617 0.01696426225624468 0  0.04613812221791593 0.01926846330677807 0  0.04512926421764892 0.02152555484008794 0  0.04401006955917259 0.02373001848707224 0  0.04278327456448917 0.02587646454868855 0  0.04145187862794129 0.02795964517325684 0  0.04001913688300011 0.02997446718691929 0  0.03848855224377164 0.03191600454597132 0  0.03686386684071396 0.03377951038055631 0  0.03514905287149344 0.03556042860029895 0  0.03334830288935025 0.03725440503350112 0  0.03146601955270811 0.03885729807267346 0  0.0295068048611069 0.04036518880035816 0  0.02747544890376348 0.04177439057050004 0  0.02537691814825449 0.04308145802194713 0  0.02321634329801946 0.04428319550200175 0  0.02099900674825754 0.04537666487950205 0  0.01873032967100249 0.04635919272825579 0  0.0164158587608822 0.04722837686330929 0  0.01406125267398022 0.04798209221405924 0  0.01167226819298624 0.04861849601983799 0  0.009254746152419701 0.04913603233528602 0  0.006814597158349477 0.04953343583448876 0  -0.187519667561546 -0.2 0  -0.1748316574821168 -0.2 0  -0.1619325192212862 -0.2 0  -0.148818726846035 -0.2 0  -0.1354867192353635 -0.2 0  -0.1219328603917423 -0.2 0  -0.1081534592978099 -0.2 0  -0.09414476589796635 -0.2 0  -0.07990295884356099 -0.2 0  -0.06542416303692469 -0.2 0  -0.05070442887227664 -0.2 0  -0.03573975841838681 -0.2 0  -0.02052606515274366 -0.2 0  -0.005059208927244263 -0.2 0  0.01066502121897589 -0.2 0  0.0266509074223695 -0.2 0  0.04290280916834216 -0.2 0  0.05942514657702952 -0.2 0  0.0762224259839136 -0.2 0  0.09329921648059353 -0.2 0  0.110660175036538 -0.2 0  0.1283100227830172 -0.2 0  0.1462535753141169 -0.2 0  0.1644957199166657 -0.2 0  0.1830414159977267 -0.2 0  0.2018957233573105 -0.2 0  0.2210637763821503 -0.2 0  0.2405507887204602 -0.2 0  0.260362079066015 -0.2 0  0.2805030358280229 -0.2 0  0.3009791451426284 -0.2 0  0.3217959904068706 -0.2 0  0.3429592343744705 -0.2 0  0.3644746437000989 -0.2 0  0.3863480795092348 -0.2 0  0.4085854991020529 -0.2 0  0.4311929577241948 -0.2 0  0.4541766164908302 -0.2 0  0.4775427321916551 -0.2 0  0.5012976684604897 -0.2 0  0.5254479006641548 -0.2 0  0.5749999999999358 -0.2 0  0.5999999999998969 -0.2 0  0.6249999999998155 -0.2 0  0.6499999999998081 -0.2 0  0.6749999999997656 -0.2 0  0.6999999999997664 -0.2 0  0.7249999999997357 -0.2 0  0.7499999999996745 -0.2 0  0.7749999999995796 -0.2 0  0.7999999999995281 -0.2 0  0.8249999999994608 -0.2 0  0.8499999999994138 -0.2 0  0.8749999999993301 -0.2 0  0.8999999999992546 -0.2 0  0.9249999999991836 -0.2 0  0.9499999999990955 -0.2 0  0.9749999999990373 -0.2 0  0.9999999999989423 -0.2 0  1.024999999998847 -0.2 0  1.049999999998752 -0.2 0  1.074999999998672 -0.2 0  1.099999999998649 -0.2 0  1.124999999998554 -0.2 0  1.149999999998545 -0.2 0  1.174999999998451 -0.2 0  1.199999999998416 -0.2 0  1.224999999998348 -0.2 0  1.249999999998288 -0.2 0  1.274999999998288 -0.2 0  1.299999999998246 -0.2 0  1.324999999998369 -0.2 0  1.349999999998394 -0.2 0  1.37499999999845 -0.2 0  1.399999999998551 -0.2 0  1.424999999998531 -0.2 0  1.449999999998684 -0.2 0  1.474999999998642 -0.2 0  1.499999999998804 -0.2 0  1.524999999998773 -0.2 0  1.549999999998885 -0.2 0  1.574999999999013 -0.2 0  1.599999999999079 -0.2 0  1.624999999999119 -0.2 0  1.649999999999211 -0.2 0  1.674999999999224 -0.2 0  1.699999999999321 -0.2 0  1.724999999999342 -0.2 0  1.749999999999427 -0.2 0  1.774999999999474 -0.2 0  1.799999999999533 -0.2 0  1.824999999999605 -0.2 0  1.849999999999639 -0.2 0  1.874999999999735 -0.2 0  1.899999999999745 -0.2 0  1.924999999999841 -0.2 0  1.949999999999869 -0.2 0  1.974999999999947 -0.2 0  2 -0.1758823529412649 0  2 -0.1517647058824698 0  2 -0.12764705882371 0  2 -0.103529411764951 0  2 -0.07941176470620959 0  2 -0.05529411764745706 0  2 -0.03117647058865336 0  2 -0.007058823529918185 0  2 0.01705882352889865 0  2 0.04117647058779714 0  2 0.06529411764668486 0  2 0.08941176470558332 0  2 0.1135294117644398 0  2 0.137647058823337 0  2 0.1617647058822356 0  2 0.185882352941134 0  1.975000000000015 0.21 0  1.950000000000055 0.21 0  1.925000000000061 0.21 0  1.90000000000011 0.21 0  1.875000000000116 0.21 0  1.850000000000166 0.21 0  1.825000000000172 0.21 0  1.800000000000206 0.21 0  1.775000000000227 0.21 0  1.750000000000322 0.21 0  1.725000000000369 0.21 0  1.700000000000375 0.21 0  1.675000000000454 0.21 0  1.650000000000517 0.21 0  1.62500000000057 0.21 0  1.600000000000658 0.21 0  1.575000000000687 0.21 0  1.550000000000789 0.21 0  1.525000000000806 0.21 0  1.500000000000905 0.21 0  1.475000000001007 0.21 0  1.450000000001109 0.21 0  1.42500000000121 0.21 0  1.400000000001312 0.21 0  1.375000000001406 0.21 0  1.350000000001428 0.21 0  1.32500000000153 0.21 0  1.300000000001554 0.21 0  1.275000000001647 0.21 0  1.250000000001522 0.21 0  1.225000000001572 0.21 0  1.200000000001437 0.21 0  1.175000000001446 0.21 0  1.15000000000137 0.21 0  1.125000000001303 0.21 0  1.100000000001302 0.21 0  1.075000000001145 0.21 0  1.050000000001136 0.21 0  1.025000000000966 0.21 0  1.000000000000931 0.21 0  0.9750000000008732 0.21 0  0.9500000000008135 0.21
[...]
<PointData  Scalars="pressure"> 
<DataArray  type="Float64"  Name="pressure"  format="ascii">-7.8623741468885944e-01  -7.2957033782796465e-01  -8.0199898701246441e-01  -1.0635484282700205e+00  -1.0295969350604905e+00  -8.4844067962062553e-01  4.5627937113076850e-01  1.2839058224349542e-01  0.0000000000000000e+00  0.0000000000000000e+00  1.9334346082095405e-01  5.0217019963083875e-01  -7.4721561862627683e-01  -7.3768044328081472e-01  -1.0831419905314992e+00  -9.4817584406465294e-01  -8.0902697742620178e-01  -8.2163484956503918e-01  -8.2131871689873370e-01  -8.0919524947701227e-01  -7.8355886641177053e-01  -7.4115566154594470e-01  -6.8462812860922229e-01  -6.1430019486467446e-01  -5.2609312901074090e-01  -4.2086550848225684e-01  -3.0165490941675904e-01  -1.7292891546932504e-01  -3.2341335797641715e-02  1.2349314819206852e-01  2.8188798724433733e-01  4.5018636357481706e-01  6.1887501888139251e-01  7.8535520942745396e-01  9.5650053985628591e-01  1.1147710980562966e+00  1.2731226774656614e+00  1.4172655318832759e+00  1.5491442980809949e+00  1.6687977069735445e+00  1.7695935170061270e+00  1.8522052301984744e+00  1.9160924304857592e+00  1.9606367762894303e+00  1.9795393103305903e+00  1.9784837855248028e+00  1.9555410803451323e+00  1.9095456594156115e+00  1.8434325878499129e+00  1.7557695361055206e+00  1.6508481238913983e+00  1.5305460923855974e+00  1.3909623229670147e+00  1.2426709465998762e+00  1.0801654747850948e+00  9.0899034988649230e-01  7.3369255137230749e-01  5.5355412962870532e-01  3.7641728814083925e-01  2.0006263527218510e-01  2.2334163095898096e-02  -1.3604562051502156e-01  -2.9865332381663595e-01  -4.4248324090959057e-01  -5.7573372554356705e-01  -6.9691635698868371e-01  -8.0419898787208921e-01  -8.9189068533251448e-01  -9.7001603056499131e-01  -1.0251013169410215e+00  -1.0710280873926454e+00  -1.0970431425786804e+00  -1.1108375918394402e+00  -1.1104422129068230e+00  -1.0990553402700758e+00  -8.2886905420065848e-01  -7.9016994698401377e-01  -7.5032880673952029e-01  -7.1104627184702152e-01  -6.7470610517592688e-01  -6.4118767992559011e-01  -6.1093322497392499e-01  -5.8382663607651397e-01  -5.5979853714962924e-01  -5.3888664181756307e-01  -5.2049345346861320e-01  -5.0528830822554138e-01  -4.9292869325274880e-01  -4.8270396373875529e-01  -4.7484881361018028e-01  -4.6869915240366017e-01  -4.6437460393203511e-01  -4.6070496316123194e-01  -4.5775271261918843e-01  -4.5486971718569663e-01  -4.5153513482611263e-01  -4.4794303868543411e-01  -4.4348125432865015e-01  -4.3819052155783872e-01  -4.3253689542959517e-01  -4.2576211982697126e-01  -4.1898403880084195e-01  -4.1176884189289059e-01  -4.0478648433835890e-01  -3.9830881454914618e-01  -3.9246934066755657e-01  -3.8767506379127131e-01  -3.8426655136894883e-01  -3.8175534209930800e-01  -3.8081791199571663e-01  -3.8098812671482568e-01  -3.8224632329620245e-01  -3.8440422324174006e-01  -3.8751810382485857e-01  -3.9119215695941500e-01  -3.9543136039142368e-01  -4.0023680390897881e-01  -4.0553210448163973e-01  -4.1125398053312101e-01  -4.1756360604379583e-01  -4.2465746158351314e-01  -4.3258938084555959e-01  -4.4187055182245005e-01  -4.5243650003644098e-01  -4.6516778168335382e-01  -4.7985030702828874e-01  -4.9742732655856287e-01  -5.1776289532743325e-01  -5.4141952103385205e-01  -5.6837356309141995e-01  -5.9880394954349825e-01  -6.3239437339221183e-01  -6.7001156514886839e-01  -7.0829651173575281e-01  4.5564596671946089e-01  4.5481668000461706e-01  4.5296358873309300e-01  4.5020429729092593e-01  4.4570680312897776e-01  4.3905494332498307e-01  4.2934055047642727e-01  4.1611915034498537e-01  3.9805726640034661e-01  3.7502746305788820e-01  3.4634122875119649e-01  3.1109955992002497e-01  2.7172140692699753e-01  2.2687307324350028e-01  1.8011879622541355e-01  1.3350393524916682e-01  8.8152069856712797e-02  4.4988200708382588e-02  9.0937037059921570e-03  -2.3113242653681344e-02  -4.6646046840446577e-02  -6.4443735395811955e-02  -7.4261373461141852e-02  -8.0011224838952677e-02  -7.7268666624790969e-02  -6.9289873630065821e-02  -5.4219316200565179e-02  -3.1016030255784598e-02  1.8055125072440376e-04  4.0880016034322800e-02  9.1624098906717411e-02  1.4733023707826931e-01  2.0405006911328133e-01  2.5609525898621355e-01  2.9713082578758326e-01  3.2388682377340638e-01  3.2756101052397019e-01  3.1155083506225328e-01  2.6997802479970306e-01  2.1935836340040687e-01  1.6884554051389358e-01  1.0231403094390452e-01  9.0366607458749110e-02  8.1826153491051837e-02  7.1725335965081863e-02  6.2917661522083945e-02  6.4124996245375446e-02  8.0029172875923343e-02  1.1301823510816593e-01  1.5490833423790729e-01  1.9576645203366724e-01  2.2662152324318111e-01  2.4070261140234966e-01  2.3838875757787031e-01  2.2605581225516219e-01  2.0366738273888577e-01  1.7550800219642593e-01  1.4270558684805409e-01  1.0668380949663528e-01  6.5208579241982853e-02  2.3214539299324259e-02  -1.1434973187703930e-02  -3.3296637236426653e-02  -2.6252154175569836e-02  5.4097854050080768e-03  5.5561318797481066e-02  1.1373896882333814e-01  1.6133857745027927e-01  1.9444083464130341e-01  2.0654469366740252e-01  2.0320906940334577e-01  1.8181903846562628e-01  1.4584768508916343e-01  1.0164334588015607e-01  5.3563849800766235e-02  8.8662382465355804e-03  -2.2438498826527577e-02  -4.4106408745463031e-02  -5.0900947199256620e-02  -4.1284806843116813e-02  -2.3063968064082584e-02  2.8887797067652355e-03  3.1578195976890537e-02  5.7823805784125902e-02  7.9812198406597173e-02  9.2189360776856966e-02  9.5375976433663051e-02  8.5808735857467608e-02  6.6096095537749214e-02  3.5952730385561849e-02  5.8049799458094811e-04  -3.3785570468489928e-02  -6.5440362571748067e-02  -8.5627913630215852e-02  -9.1139519891019982e-02  -8.0536683569288309e-02  -5.6558755011712702e-02  -2.8161261103961322e-02  0.0000000000000000e+00  0.0000000000000000e+00  0.0000000000000000e+00  0.0000000000000000e+00  0.0000000000000000e+00  0.0000000000000000e+00  0.0000000000000000e+00  0.0000000000000000e+00  0.0000000000000000e+00  0.0000000000000000e+00  0.0000000000000000e+00  0.0000000000000000e+00  0.0000000000000000e+00  0.0000000000000000e+00  0.0000000000000000e+00  0.0000000000000000e+00  2.3547323269493547e-02  4.5224327786976611e-02  6.1825452818052906e-02  7.1939008791286549e-02  7.1165034211768757e-02  6.1409928241013753e-02  4.4526693459096670e-02  2.0690460154384287e-02  -4.7673793355185751e-03  -2.6297813388324109e-02  -4.4620142194324967e-02  -5.2002981184106088e-02  -4.6345552431258361e-02  -2.9010182108622308e-02  -1.1842589412304511e-03  3.2767302069498717e-02  6.7928786106747005e-02  9.9149873230447313e-02  1.2227200864599758e-01  1.3756217857067890e-01  1.4078349190641548e-01  1.3224613975344218e-01  1.1243482521060749e-01  7.9927101322838978e-02  4.2156573671389808e-02  3.2611432947353271e-03  -3.1792454026156228e-02  -4.5519089399798811e-02  -3.9106645513316766e-02  -7.1665516139165115e-03  3.6897175318482113e-02  8.8784563779095257e-02  1.3969146521504941e-01  1.8178688953443689e-01  2.1650662104851739e-01  2.3609307245554992e-01  2.3976481434588115e-01  2.2373887240136364e-01  1.8317836619609831e-01  1.2900057604634266e-01  7.5110590049427869e-02  3.1948071472583967e-02  1.2579833158238806e-02  1.5530295928520956e-02  3.6822087070429652e-02  6.3908073519711547e-02  9.4922451763327059e-02  1.2320267990581196e-01  1.4892240980526028e-01  1.7381107242389215e-01  1.9604188051639876e-01  2.1782334362460382e-01  2.3706637171395351e-01  2.5055562497197270e-01  2.5395997328115250e-01  2.4518573376772088e-01  2.2571488799059886e-01  1.5323709651479578e-01  1.1145597629111056e-01  6.4985989461100152e-02  2.5314026048731536e-02  -5.7917540847284028e-03  -1.9715155023833048e-02  -2.2549683062207525e-02  -6.0491242443191876e-03  1.8307839542243489e-02  4.5478869658510633e-02  6.8551340437227631e-02  8.7045975387136695e-02  9.7216203492854855e-02  1.0216570707328501e-01  1.0344928982961245e-01  1.0194299040041234e-01  9.9903070585080037e-02  9.8651702944706612e-02  1.0059543370861636e-01  1.0682826482580321e-01  1.1691214502070908e-01  1.3334773012252663e-01  1.5534534301439604e-01  1.8169485179084613e-01  2.1299758468568269e-01  2.4695522110383747e-01  2.8202234403856585e-01  3.1713284524774393e-01  3.5026789059599800e-01  3.8073030222588916e-01  4.0698623036754528e-01  4.2994309383998491e-01  4.4845999738809245e-01  4.6315105717056554e-01  4.7506548114430530e-01  4.8374132816281817e-01  4.9048796101721548e-01  4.9511707168630575e-01  4.9832676662466313e-01  5.0032454876684507e-01  5.0146871492619083e-01  5.0204521957411796e-01  5.0302977450410835e-01  5.0646910323799510e-01  5.1343849335388869e-01  5.2474687519936447e-01  5.4113808798119978e-01  5.6269182723677269e-01  5.8921440587256024e-01  6.2012744475664938e-01  6.5449787801042836e-01  6.9020139409075787e-01  7.2572052777306439e-01  7.5817823209075452e-01  7.8479719667219505e-01  8.0408632756391651e-01  8.1447763534283391e-01  8.1199131776343858e-01  7.9977440143679279e-01  7.7726800356874659e-01  7.4615671297549047e-01  7.0994603622979591e-01  6.6963083996833095e-01  6.2916485074549822e-01  5.9002507473011179e-01  5.5483118059187964e-01  5.2444552826720692e-01  4.9988079249202932e-01  4.8131200217710968e-01  4.6841421280666834e-01  4.6091126805491178e-01  4.5696862556130369e-01  4.5613737160179052e-01  1.2416400244338677e-01  1.1110239444533211e-01  9.5328432198859864e-02  8.8025007110958828e-02  7.6841012153970434e-02  4.8025416548694327e-02  -9.8248175154640495e-03  -6.8876673587608225e-02  -1.0305048039130911e-01  -4.7345965283142583e-02  2.8731749602087166e-02  1.1210844519255249e-01  1.6060210603790320e-01  1.7794776071845722e-01  1.9040263937766730e-01  1.9174413980995650e-01  -1.5144893845022661e-01  -3.0962796119119475e-02  -3.8706468696091352e-02  -3.1684312652763162e-02  6.8222184171650463e-02  -6.6008888377708672e-02  -4.9199073716175240e-02  -6.1265501789151584e-02  1.0822803200881023e-01  8.0382330537347793e-02  5.7016643397844223e-03  1.3043891102172386e-01  3.3127946532583386e-02  9.1936703847219248e-02  2.3302514722792847e-01  -7.1125083493798801e-03  -1.7939307793868406e-01  2.4922658898212879e-01  1.8458670610217141e-02  1.3259615991942929e-02  7.8612601066154211e-02  1.3207249409898589e-01  -1.0634563180169389e-01  -1.1135589587258199e-01  3.2619852164862538e-02  1.5560065055376524e-01  -1.7419634075991874e-01  2.6622844939921275e-01  6.3686781594819108e-02  -7.8211658732282030e-02  2.1174660411616947e-01  -1.3269451837716451e-01  4.8753316356091182e-02  -9.4311476794988830e-02  9.3246817634728175e-03  -5.2824662513095186e-02  -2.2940503835468491e-02  2.3955606769850152e-01  -2.4312305854793047e-03  -3.0850122047990553e-02  2.4808981290545387e-02  5.2728823979744802e-03  3.6892148925265884e-02  7.1955959527037178e-02  1.5531674248280433e-01  1.1110881543049275e-01  6.5916855457293843e-03  -1.0809474586545131e-01  7.2699650991736767e-02  7.9051206405609101e-02  2.7449143120897379e-01  -1.1784639469056755e-01  -7.1410036932651702e-02  4.2788068726004526e-02  1.2967239275786205e-01  -4.9703237311059020e-03  -7.5475741485772990e-02  1.0939280957907674e-01  9.5765208622120984e-02  5.5383058777377814e-02  2.2413693562397477e-01  -1.3825603875394907e-01  -6.5649343929383805e-02  -7.5117224525642609e-02  2.1897204423373523e-01  1.1974686181586218e-01  -9.7251369677740229e-02  5.5902043551116574e-02  7.8331031494322897e-02  2.2890466287772519e-02  2.1993192958593819e-01  6.5587702009482440e-02  4.2825123398197634e-02  -1.8194407530377621e-01  9.7886983698218397e-02  -3.1288572437732975e-02  5.2714504629173660e-02  -1.1499238810095951e-01  -2.9828622399642496e-01  1.8057497738859349e-01  1.1359220309912159e-01  2.6008084860071640e-01  -1.2806693747089928e-01  3.4776493529123161e-02  1.0894365444903110e-01  7.8467090025859471e-02  -7.0571002131399801e-02  -1.0407428725216678e-02  1.0097908071112217e-01  2.1260192107830572e-01  3.0618267116255052e-02  1.7657349749827983e-01  1.7692635823128722e-01  -1.1961390613180702e-01  -4.3763362310464050e-02  -8.5005375270129774e-02  1.5350613842961366e-02  3.9466342205925771e-02  6.4030349840871012e-02  -8.5648962066224119e-02  4.6996081579298347e-02  -1.7996491910588152e-03  -8.0820435450183262e-03  1.8679933128052739e-01  -6.6459673519969594e-03  -3.7794312995134971e-02  1.2151370550428076e-01  9.6279574830437887e-04  1.0047945717551290e-01  -8.2555622469410658e-02  1.5141084856497669e-01  -2.5512815746737056e-03  1.0335194790516250e-01  -6.9318078821803158e-02  5.2895007006287159e-02  1.4768296397524019e-01  -2.9015313497282390e-02  6.8180410368254389e-03  3.8088565119590884e-02  -2.8622107905583213e-02  -5.0021547033946318e-02  4.0279654517977855e-03  -1.0809215269704356e-01  2.5513504677967902e-01  2.6023106311167610e-01  1.9131854068148818e-01  -9.5759505176286369e-02  -3.3808737662511433e-02  -6.8376442354713587e-02  3.4024327647463125e-02  5.0569124868588264e-02  -8.9308011295711823e-02  1.9395629064712636e-01  -2.0500371014578658e-02  -6.7601503464473592e-02  2.4461203496586165e-01  1.1030598146208097e-02  1.0704291127932525e-02  6.7941036646204975e-02  6.5215360895111776e-02  2.4797106934271440e-01  5.6747740605898399e-02  -1.1205532164871523e-01  9.9447280273700117e-02  1.5325907684099027e-01  7.7081485153981555e-02  -8.6427946477229664e-02  2.0638311398203465e-01  1.0373841478134914e-01  1.0323003216864118e-01  1.7904177217384917e-01  -1.6780760382784257e-01  -1.9325221788540922e-01  1.5245147272081419e-01  -1.4368851153512394e-01  -9.1672708934938174e-02  -1.3065917857992107e-01  -3.9826660484371798e-03  2.9220990467657363e-02  1.5234400873067264e-01  -4.3580804116227022e-02  7.4159872906160249e-03  -5.3837443012298390e-03  -7.1892915381019898e-02  -8.2115447412310250e-02  -8.9655202857294086e-02  -2.8465069302343059e-02  6.3357134327648043e-02  7.0355977325589986e-02  -5.3094590391882378e-02  -1.2611511105803772e-01  1.3707523722045498e-01  -8.9952884839964147e-03  4.3349018892773247e-02  -4.5158177929974355e-02  -3.4520816876422125e-02  9.3467821299438574e-03  6.0980739304312373e-02  -9.9975358483884464e-03  -6.1765132486443629e-02  2.1698386960021016e-01  1.7436870828332887e-01  -1.2863724762963796e-01  -1.1869130638383249e-01  6.5786177682050681e-02  8.7154130925145401e-02  4.0077264040500257e-02  2.4301967307822184e-01  -5.2576417449395473e-02  3.9419304547245432e-02  8.3643855183796342e-02  1.5932406370994620e-01  7.8532783871233469e-02  2.3221971241696665e-01  -5.5091667355901208e-02  4.2251007907656693e-02  9.8681837731625130e-02  2.2996963629090331e-03  2.5106552474013316e-01  5.1360013388879994e-02  1.8635873647989382e-01  -1.6194774436222564e-02  -1.6443914613141777e-01  5.9065968872849657e-02  4.9110852964884599e-02  -3.7120936654803233e-02  1.1086917762576547e-01  7.8869337411154927e-02  1.4271473245448171e-01  -5.2239328213867467e-02  -4.2069935247369190e-02  2.2960966302070476e-01  8.5132214675123538e-02  -1.1314885370781770e-01  -4.1323509452611214e-02  5.9247190303338498e-02  -1.8424493350298141e-01  9.7466988555841072e-02  2.7008331866128010e-01  1.3994376851829698e-01  5.3235698705117400e-02  1.2681293753995859e-01  6.5352274140449418e-02  1.0459354971331851e-01  4.1162751128048423e-02  1.5518795115249874e-03  -4.7965126603593262e-02  1.2412833995371830e-01  5.5441929639530159e-02  4.3085201152502285e-02  8.7503904134626758e-03  -6.7931655920129050e-02  -6.6560915899203160e-03  9.4830199977521512e-02  2.3990675522922683e-01  6.5088046810898553e-02  -3.4946949192774614e-02  -1.0020098401706470e-01  1.5605892294549650e-01  1.6199962285175332e-01  2.5949142270322834e-01  -1.3862081411580998e-01  1.4565254695861887e-01  1.9388094402507487e-02  9.7698668517582646e-02  -1.4045250939687405e-02  2.4426086904050872e-02  -8.5588146475554266e-02  -1.8196300996822734e-01  3.5419374733005543e-03  1.2633379693655641e-01  1.8321101637788742e-01  -1.0485938269762016e-01  9.4102357920452823e-02  -2.5636240791955766e-02  5.4630151022711522e-02  2.0131457771193486e-02  -1.0286985557929677e-01  4.0732999626895465e-02  1.0081275076387766e-01  -5.7083186672236892e-02  -1.6670648053019189e-03  2.6500807314817698e-01  1.1288090598729933e-01  1.6264702108051227e-01  -1.3854104729068697e-01  1.1218610044747451e-01  -9.5505022934376557e-02  2.6194160355625046e-01  5.5012800064991024e-03  4.4683260722098384e-02  -4.5706848216427773e-02  -3.8781742103392684e-02  -3.8735268419388166e-02  1.5925251445522293e-01  -2.9063936985416772e-01  2.1318075573377349e-01  -9.9692132957234100e-02  4.6088475148711935e-02  5.1395758745310785e-02  1.2174220911812413e-02  1.3003968468920429e-01  4.5125541904929421e-02  -5.5482788058193342e-03  4.5060789118311954e-02  2.3743375440443823e-01  6.5932980893051746e-02  -5.7184397000724724e-02  9.2302894166222098e-03  1.2236754865132105e-01  1.1711013137189502e-01  -6.3848528226454787e-02  -5.0669369090222398e-02  3.9463978249659720e-02  9.2471271506862854e-03  -5.3708093422870841e-02  7.2775008075255804e-02  2.1178522167557068e-01  4.6283305856909408e-02  -9.9968528753134306e-02  -1.1420109245046527e-01  4.2702014768333109e-02  1.2142792195368067e-01  -7.4668533243295102e-02  2.2261984082279845e-01  2.3049700763569175e-01  5.6928868306661488e-02  7.9653365908929269e-02  2.8778353094002552e-02  -7.1907857466173130e-03  1.7844952426205668e-01  -2.7219729145956165e-02  2.1097078474943645e-01  -1.5086855171530655e-01  -8.9753095440999728e-02  -7.2428319354726808e-02  4.7645315749098090e-02  1.7889924220749626e-01  8.2657240008095559e-02  1.2884757292168683e-01  3.0199456015820884e-03  -1.3852317586132523e-01  1.7056731004154368e-01  7.8478103313354731e-03  8.1854131364436741e-02  2.8276727078257080e-01  -1.0554191644678057e-01  6.3672308256840685e-02  -1.1869504515352164e-01  1.3183117045806214e-01  3.4699660178025430e-03  2.3929544042253385e-02  5.4822598419329044e-02  -1.0960694229365121e-01  -3.5724388548060357e-02  -6.2382169987852468e-02  1.0724026512051851e-01  -3.7424408422624782e-02  -1.0496690026070261e-01  8.0029546748671493e-02  2.4186941754174759e-01  -1.5738455427165732e-01  -3.5625283088777132e-02  2.1349790122885303e-02  3.1110853995617079e-02  -1.7794048529680873e-01  2.4369372825528446e-01  -1.0106065689716180e-01  6.9351894449620935e-02  6.4932063813899349e-02  1.8687191503469338e-02  5.5329563452585544e-02  1.8843892879474144e-02  2.4535511063743273e-01  1.2963463670367298e-01  9.0806323873724365e-02  -7.3187769668297556e-02  -1.1166344221735692e-02  -4.1724329310478092e-02  1.0685313137523267e-01  8.1300066192915466e-02  1.2577121927700405e-01  1.1000109671785337e-01  -9.8110864818099969e-02  -2.6315940939439366e-02  4.4226252648650814e-02  -1.3399792110912584e-02  1.7388272571821858e-01  1.6942713369197640e-01  -8.0811686607271421e-02  -4.6286867670232754e-02  -8.0087555979116501e-03  -5.3381180994332394e-02  5.1792456888430961e-02  2.0382838682469087e-01  2.3051280028427437e-01  -2.1485587692105912e-01  6.1840281790038323e-02  -8.8820350267129103e-02  2.0126899828715697e-01  1.8171439700942060e-01  -1.1031645691983018e-01  -1.0293065456577591e-01  1.2313912056457486e-01  1.1076412086307504e-02  9.7252321633478651e-03  -6.8258718393936393e-02  5.6651463185245568e-02  -3.2284014911190685e-02  1.7814958248308344e-01  -4.7064522913192360e-02  1.2837066235098701e-01  -9.8961950081842401e-02  1.0757472147495629e-02  -4.1384214531776972e-02  -4.0844649945127973e-02  -1.7705763437837630e-02  1.4301850010692777e-01  1.2040902045876196e-01  5.3720622205615208e-03  1.4832957110497813e-01  1.0428339760719881e-01  -1.1710049854942431e-02  2.0834534377486796e-01  6.0568708116756659e-02  -9.2322848224164908e-02  -1.3748241185720364e-01  -1.8363523021585916e-03  1.7650508323143708e-02  5.3116458778826696e-02  -8.5205601288958571e-02  9.0776762810143616e-02  1.2935038790409031e-01  5.3819292738841659e-02  -5.5854630563751700e-02  1.7807852711791963e-01  1.2355736304792027e-03  1.4965073565359385e-02  -1.6331341922051434e-02  3.0499036795981434e-02  6.2596364941551477e-02  -1.0638698592773143e-02  -1.2131228289135698e