<?xml version="1.0"?>
<VTKFile type="UnstructuredGrid"  version="0.1"  >
<UnstructuredGrid>
<Piece  NumberOfPoints="4826" NumberOfCells="9274">
<Points>
<DataArray  type="Float64"  NumberOfComponents="3"  format="ascii">0.004357787137616029 0.04980973490456689 0  2.448294430073374e-13 0.05 0  -0.004357787137128233 0.04980973490460956 0  -0.004357787137605706 -0.04980973490456778 0  -2.344882876518267e-13 -0.05 0  0.004357787137138513 -0.04980973490460866 0  -0.2 -0.2 0  0.55 -0.2 0  2 -0.2 0  2 0.21 0  0.55 0.21 0  -0.2 0.21 0  0.002180969368511386 0.0499524110790822 0  -0.002180969368010819 0.04995241107910407 0  -0.002180969368502513 -0.04995241107908259 0  0.002180969368021486 -0.0499524110791036 0  -0.006814597157868607 0.04953343583455493 0  -0.009254746151924908 0.04913603233537922 0  -0.01167226819248128 0.04861849601995923 0  -0.01406125267347753 0.04798209221420657 0  -0.01641585876037609 0.04722837686348521 0  -0.01873032967049142 0.04635919272846228 0  -0.02099900674774951 0.04537666487973717 0  -0.0232163432975249 0.04428319550226104 0  -0.0253769181477669 0.04308145802223435 0  -0.02747544890327456 0.04177439057082161 0  -0.02950680486062692 0.04036518880070902 0  -0.03146601955223609 0.03885729807305569 0  -0.0333483028888871 0.03725440503391573 0  -0.03514905287103829 0.03556042860074884 0  -0.03686386684027007 0.03377951038104073 0  -0.0384885522433417 0.0319160045464898 0  -0.04001913688258778 0.02997446718746979 0  -0.04145187862754741 0.0279596451738408 0  -0.04278327456411638 0.0258764645493049 0  -0.04401006955882648 0.02373001848771415 0  -0.04512926421732728 0.02152555484076227 0  -0.04613812221762188 0.01926846330748221 0  -0.04703417700009761 0.01696426225697686 0  -0.04781523779803292 0.0146185852365256 0  -0.04847939499380464 0.01223716719811699 0  -0.04902502478771633 0.009825830477053876 0  -0.04945079316803359 0.007390470556897103 0  -0.04975565917250895 0.004937041655599784 0  -0.04993887743343513 0.002471542168028815 0  -0.05000000000000002 4.319617580295088e-13 0  -0.04993887743347691 -0.002471542167184487 0  -0.04975565917259078 -0.004937041654775128 0  -0.0494507931681559 -0.007390470556078771 0  -0.04902502478787634 -0.00982583047625548 0  -0.048479394994003 -0.01223716719733118 0  -0.04781523779827011 -0.01461858523574979 0  -0.04703417700037211 -0.01696426225621582 0  -0.04613812221792003 -0.01926846330676828 0  -0.04512926421765873 -0.0215255548400674 0  -0.0440100695591652 -0.02373001848708596 0  -0.04278327456447995 -0.0258764645487038 0  -0.04145187862791943 -0.02795964517328926 0  -0.04001913688296869 -0.02997446718696123 0  -0.03848855224374843 -0.03191600454599933 0  -0.03686386684070041 -0.03377951038057109 0  -0.03514905287149575 -0.03556042860029668 0  -0.03334830288936536 -0.03725440503348761 0  -0.03146601955271191 -0.03885729807267038 0  -0.02950680486109357 -0.0403651888003679 0  -0.02747544890375341 -0.04177439057050667 0  -0.02537691814821718 -0.0430814580219691 0  -0.02321634329799415 -0.04428319550201502 0  -0.02099900674823039 -0.04537666487951462 0  -0.01873032967097447 -0.04635919272826711 0  -0.0164158587608675 -0.0472283768633144 0  -0.01406125267397827 -0.04798209221405982 0  -0.01167226819300015 -0.04861849601983465 0  -0.00925474615244812 -0.04913603233528067 0  -0.006814597158347743 -0.04953343583448901 0  0.006814597157865879 -0.04953343583455529 0  0.009254746151927097 -0.0491360323353788 0  0.01167226819248615 -0.04861849601995805 0  0.01406125267347329 -0.04798209221420779 0  0.01641585876037412 -0.04722837686348589 0  0.01873032967049753 -0.04635919272845981 0  0.02099900674775168 -0.04537666487973616 0  0.02321634329751479 -0.04428319550226633 0  0.02537691814775486 -0.04308145802224143 0  0.02747544890326525 -0.04177439057082774 0  0.02950680486061762 -0.04036518880071581 0  0.03146601955222702 -0.03885729807306303 0  0.0333483028888813 -0.03725440503392092 0  0.03514905287103634 -0.03556042860075076 0  0.03686386684026893 -0.03377951038104196 0  0.03848855224333972 -0.03191600454649218 0  0.04001913688258468 -0.02997446718747393 0  0.04145187862754592 -0.02795964517384301 0  0.04278327456411439 -0.02587646454930818 0  0.04401006955882308 -0.02373001848772046 0  0.04512926421732501 -0.02152555484076704 0  0.04613812221761816 -0.01926846330749109 0  0.04703417700009521 -0.01696426225698355 0  0.04781523779803072 -0.01461858523653281 0  0.04847939499380377 -0.01223716719812044 0  0.04902502478771547 -0.009825830477058137 0  0.04945079316803235 -0.007390470556905473 0  0.04975565917250727 -0.004937041655616693 0  0.0499388774334346 -0.002471542168039619 0  0.05 -4.403257272689309e-13 0  0.04993887743347755 0.002471542167171875 0  0.04975565917259197 0.004937041654763091 0  0.04945079316815711 0.007390470556070629 0  0.04902502478787914 0.009825830476241509 0  0.04847939499400326 0.01223716719733013 0  0.04781523779826526 0.01461858523576567 0  0.0470341770003617 0.01696426225624468 0  0.04613812221791593 0.01926846330677807 0  0.04512926421764892 0.02152555484008794 0  0.04401006955917259 0.02373001848707224 0  0.04278327456448917 0.02587646454868855 0  0.04145187862794129 0.02795964517325684 0  0.04001913688300011 0.02997446718691929 0  0.03848855224377164 0.03191600454597132 0  0.03686386684071396 0.03377951038055631 0  0.03514905287149344 0.03556042860029895 0  0.03334830288935025 0.03725440503350112 0  0.03146601955270811 0.03885729807267346 0  0.0295068048611069 0.04036518880035816 0  0.02747544890376348 0.04177439057050004 0  0.02537691814825449 0.04308145802194713 0  0.02321634329801946 0.04428319550200175 0  0.02099900674825754 0.04537666487950205 0  0.01873032967100249 0.04635919272825579 0  0.0164158587608822 0.04722837686330929 0  0.01406125267398022 0.04798209221405924 0  0.01167226819298624 0.04861849601983799 0  0.009254746152419701 0.04913603233528602 0  0.006814597158349477 0.04953343583448876 0  -0.187519667561546 -0.2 0  -0.1748316574821168 -0.2 0  -0.1619325192212862 -0.2 0  -0.148818726846035 -0.2 0  -0.1354867192353635 -0.2 0  -0.1219328603917423 -0.2 0  -0.1081534592978099 -0.2 0  -0.09414476589796635 -0.2 0  -0.07990295884356099 -0.2 0  -0.06542416303692469 -0.2 0  -0.05070442887227664 -0.2 0  -0.03573975841838681 -0.2 0  -0.02052606515274366 -0.2 0  -0.005059208927244263 -0.2 0  0.01066502121897589 -0.2 0  0.0266509074223695 -0.2 0  0.04290280916834216 -0.2 0  0.05942514657702952 -0.2 0  0.0762224259839136 -0.2 0  0.09329921648059353 -0.2 0  0.110660175036538 -0.2 0  0.1283100227830172 -0.2 0  0.1462535753141169 -0.2 0  0.1644957199166657 -0.2 0  0.1830414159977267 -0.2 0  0.2018957233573105 -0.2 0  0.2210637763821503 -0.2 0  0.2405507887204602 -0.2 0  0.260362079066015 -0.2 0  0.2805030358280229 -0.2 0  0.3009791451426284 -0.2 0  0.3217959904068706 -0.2 0  0.3429592343744705 -0.2 0  0.3644746437000989 -0.2 0  0.3863480795092348 -0.2 0  0.4085854991020529 -0.2 0  0.4311929577241948 -0.2 0  0.4541766164908302 -0.2 0  0.4775427321916551 -0.2 0  0.5012976684604897 -0.2 0  0.5254479006641548 -0.2 0  0.5749999999999358 -0.2 0  0.5999999999998969 -0.2 0  0.6249999999998155 -0.2 0  0.6499999999998081 -0.2 0  0.6749999999997656 -0.2 0  0.6999999999997664 -0.2 0  0.7249999999997357 -0.2 0  0.7499999999996745 -0.2 0  0.7749999999995796 -0.2 0  0.7999999999995281 -0.2 0  0.8249999999994608 -0.2 0  0.8499999999994138 -0.2 0  0.8749999999993301 -0.2 0  0.8999999999992546 -0.2 0  0.9249999999991836 -0.2 0  0.9499999999990955 -0.2 0  0.9749999999990373 -0.2 0  0.9999999999989423 -0.2 0  1.024999999998847 -0.2 0  1.049999999998752 -0.2 0  1.074999999998672 -0.2 0  1.099999999998649 -0.2 0  1.124999999998554 -0.2 0  1.149999999998545 -0.2 0  1.174999999998451 -0.2 0  1.199999999998416 -0.2 0  1.224999999998348 -0.2 0  1.249999999998288 -0.2 0  1.274999999998288 -0.2 0  1.299999999998246 -0.2 0  1.324999999998369 -0.2 0  1.349999999998394 -0.2 0  1.37499999999845 -0.2 0  1.399999999998551 -0.2 0  1.424999999998531 -0.2 0  1.449999999998684 -0.2 0  1.474999999998642 -0.2 0  1.499999999998804 -0.2 0  1.524999999998773 -0.2 0  1.549999999998885 -0.2 0  1.574999999999013 -0.2 0  1.599999999999079 -0.2 0  1.624999999999119 -0.2 0  1.649999999999211 -0.2 0  1.674999999999224 -0.2 0  1.699999999999321 -0.2 0  1.724999999999342 -0.2 0  1.749999999999427 -0.2 0  1.774999999999474 -0.2 0  1.799999999999533 -0.2 0  1.824999999999605 -0.2 0  1.849999999999639 -0.2 0  1.874999999999735 -0.2 0  1.899999999999745 -0.2 0  1.924999999999841 -0.2 0  1.949999999999869 -0.2 0  1.974999999999947 -0.2 0  2 -0.1758823529412649 0  2 -0.1517647058824698 0  2 -0.12764705882371 0  2 -0.103529411764951 0  2 -0.07941176470620959 0  2 -0.05529411764745706 0  2 -0.03117647058865336 0  2 -0.007058823529918185 0  2 0.01705882352889865 0  2 0.04117647058779714 0  2 0.06529411764668486 0  2 0.08941176470558332 0  2 0.1135294117644398 0  2 0.137647058823337 0  2 0.1617647058822356 0  2 0.185882352941134 0  1.975000000000015 0.21 0  1.950000000000055 0.21 0  1.925000000000061 0.21 0  1.90000000000011 0.21 0  1.875000000000116 0.21 0  1.850000000000166 0.21 0  1.825000000000172 0.21 0  1.800000000000206 0.21 0  1.775000000000227 0.21 0  1.750000000000322 0.21 0  1.725000000000369 0.21 0  1.700000000000375 0.21 0  1.675000000000454 0.21 0  1.650000000000517 0.21 0  1.62500000000057 0.21 0  1.600000000000658 0.21 0  1.575000000000687 0.21 0  1.550000000000789 0.21 0  1.525000000000806 0.21 0  1.500000000000905 0.21 0  1.475000000001007 0.21 0  1.450000000001109 0.21 0  1.42500000000121 0.21 0  1.400000000001312 0.21 0  1.375000000001406 0.21 0  1.350000000001428 0.21 0  1.32500000000153 0.21 0  1.300000000001554 0.21 0  1.275000000001647 0.21 0  1.250000000001522 0.21 0  1.225000000001572 0.21 0  1.200000000001437 0.21 0  1.175000000001446 0.21 0  1.15000000000137 0.21 0  1.125000000001303 0.21 0  1.100000000001302 0.21 0  1.075000000001145 0.21 0  1.050000000001136 0.21 0  1.025000000000966 0.21 0  1.000000000000931 0.21 0  0.9750000000008732 0.21 0  0.9500000000008135 0.21
[...]
<PointData  Scalars="pressure"> 
<DataArray  type="Float64"  Name="pressure"  format="ascii">-8.0611606457459961e-01  -7.0469387739976241e-01  -8.0856582633073160e-01  -1.0596145079433672e+00  -1.0573981288300804e+00  -8.3240823547758669e-01  4.5635976525059835e-01  7.1167650755871878e-02  0.0000000000000000e+00  0.0000000000000000e+00  2.8218691939110702e-01  4.9741101669719867e-01  -7.4161560228254242e-01  -7.1604243654974176e-01  -1.1094744026564063e+00  -9.5913790064357829e-01  -8.2037724309770621e-01  -8.4072892408452071e-01  -8.4809552296988766e-01  -8.4302648385188372e-01  -8.2422742221175949e-01  -7.8792734090815486e-01  -7.3698355434765384e-01  -6.7177846947268349e-01  -5.8800763377485810e-01  -4.8656421615937051e-01  -3.7034912533000680e-01  -2.4395940512167796e-01  -1.0512118928524154e-01  5.0054363753687103e-02  2.0832772127137031e-01  3.7742702379642984e-01  5.4764051216150356e-01  7.1619760547829681e-01  8.9049845329692556e-01  1.0521736411543265e+00  1.2149314361052137e+00  1.3639721710750543e+00  1.5011856678287472e+00  1.6268315205218300e+00  1.7339854861786468e+00  1.8231689381676024e+00  1.8941337356631678e+00  1.9459359303296424e+00  1.9722013715541002e+00  1.9785476754775460e+00  1.9630602874960970e+00  1.9244783065455660e+00  1.8654773843665069e+00  1.7848832405957253e+00  1.6865554644697607e+00  1.5724220976986218e+00  1.4387675111061129e+00  1.2956638767692974e+00  1.1380428168594554e+00  9.7111545955584255e-01  7.9930266417934992e-01  6.2207665577970805e-01  4.4699006818029513e-01  2.7205771609848950e-01  9.5081055032370715e-02  -6.3528251844565842e-02  -2.2683991559513206e-01  -3.7243911882004149e-01  -5.0793203010971522e-01  -6.3216223189708953e-01  -7.4313778216135662e-01  -8.3520250335323021e-01  -9.1825276501113651e-01  -9.7895288600371488e-01  -1.0308767163166008e+00  -1.0636736396112711e+00  -1.0845390876635850e+00  -1.0921611297022760e+00  -1.0885263705414945e+00  -8.2481200026370349e-01  -7.9231596723696873e-01  -7.5806686575737714e-01  -7.2421818171919639e-01  -6.9284882650644553e-01  -6.6407256095343437e-01  -6.3817750067508017e-01  -6.1526308704457366e-01  -5.9515501463749843e-01  -5.7802600561432615e-01  -5.6323243277531176e-01  -5.5129176147328263e-01  -5.4148292692242705e-01  -5.3323243364912165e-01  -5.2621476820338420e-01  -5.1985844619778021e-01  -5.1401115588342339e-01  -5.0780621570118811e-01  -5.0108535880340666e-01  -4.9393539251737273e-01  -4.8547939445893185e-01  -4.7633765560661512e-01  -4.6633281000048060e-01  -4.5552173669339696e-01  -4.4464404483174580e-01  -4.3331545208424882e-01  -4.2248319393011002e-01  -4.1196449663969537e-01  -4.0231883809118907e-01  -3.9373098399022133e-01  -3.8621575522726498e-01  -3.7986762048263012e-01  -3.7485599144630066e-01  -3.7060510900885490e-01  -3.6754764346141960e-01  -3.6509847749604113e-01  -3.6342158973621497e-01  -3.6217670402912544e-01  -3.6165178640701090e-01  -3.6161679152162279e-01  -3.6220958452503965e-01  -3.6385025934173076e-01  -3.6650852201050993e-01  -3.7036237391582766e-01  -3.7579544634268014e-01  -3.8305611013726237e-01  -3.9208350241664586e-01  -4.0330161852535984e-01  -4.1637843988154882e-01  -4.3211071450090582e-01  -4.5001591471431085e-01  -4.7113387658623257e-01  -4.9514143309420539e-01  -5.2280725377778170e-01  -5.5396982614499057e-01  -5.8894191964714027e-01  -6.2739638805321007e-01  -6.7007687161475804e-01  -7.1385434632835976e-01  4.5572191212667434e-01  4.5473859350569440e-01  4.5236285254450859e-01  4.4876456910463386e-01  4.4300537864891648e-01  4.3473184104071561e-01  4.2301196338789687e-01  4.0752660634527355e-01  3.8713068146871271e-01  3.6181485566706578e-01  3.3117527367495347e-01  2.9436966283301808e-01  2.5414604078583436e-01  2.0921206555282496e-01  1.6330105495405547e-01  1.1851457727683738e-01  7.6506771961214470e-02  3.8316663441273380e-02  8.4627212758089307e-03  -1.4944654642102080e-02  -2.8139756338906433e-02  -3.2375132557956529e-02  -2.6491968490545033e-02  -1.3513978122791606e-02  9.7295585487486465e-03  4.0595212738874786e-02  7.6085316345852916e-02  1.1659266116087248e-01  1.5575954211226942e-01  1.9040078937910870e-01  2.1940833534060231e-01  2.3554195890780036e-01  2.3970424427677142e-01  2.2436491275715548e-01  1.9357677441141444e-01  1.4633344943040646e-01  1.0070478308611167e-01  6.0797085095909940e-02  4.3096131778652916e-02  3.7962225068309610e-02  5.2719285262547239e-02  8.9322930142158044e-02  1.0747975026109957e-01  1.3446222593305943e-01  1.6429658118669185e-01  1.9696353254702972e-01  2.2360229567263862e-01  2.4127558517078806e-01  2.4595593306883290e-01  2.4096888094013139e-01  2.2632398528878644e-01  2.0583168587291736e-01  1.8077000792767639e-01  1.4829168481649896e-01  1.1152955103250002e-01  7.3291229669253624e-02  3.6053122852764671e-02  8.3384007253434044e-03  1.7579546552504467e-03  2.2642870049849839e-02  6.7831421427961489e-02  1.2453704286721473e-01  1.8233526910329562e-01  2.2089419533208166e-01  2.4198701195070946e-01  2.3933540006010923e-01  2.1880312019046977e-01  1.8436830973823473e-01  1.3682711550895912e-01  8.1961996854182692e-02  2.5662010266421609e-02  -1.7469495768914021e-02  -4.3174815444575888e-02  -4.5038980422154304e-02  -2.2635860552501146e-02  1.0244058489108334e-02  5.0738071619312756e-02  9.2063715397312548e-02  1.2203187616681328e-01  1.4155440235680578e-01  1.4895437275660514e-01  1.4052354861004343e-01  1.2110374970634905e-01  9.2312561683317251e-02  5.5654341819946870e-02  1.6686432098987878e-02  -2.0223768286397856e-02  -4.8793463137135923e-02  -6.5811824307604197e-02  -6.9459890518320119e-02  -6.1918105569917899e-02  -4.6916194521004810e-02  -2.6339908038782750e-02  -7.0512608271428422e-03  8.8754824214015669e-03  1.7949335952554164e-02  1.9418311828273572e-02  1.2940985254842654e-02  0.0000000000000000e+00  0.0000000000000000e+00  0.0000000000000000e+00  0.0000000000000000e+00  0.0000000000000000e+00  0.0000000000000000e+00  0.0000000000000000e+00  0.0000000000000000e+00  0.0000000000000000e+00  0.0000000000000000e+00  0.0000000000000000e+00  0.0000000000000000e+00  0.0000000000000000e+00  0.0000000000000000e+00  0.0000000000000000e+00  0.0000000000000000e+00  -7.5959188691009137e-03  -9.9221588716479278e-03  -1.7369401246673114e-03  1.3182419791828518e-02  3.5203698741248138e-02  6.0655560725725137e-02  8.4261440176840618e-02  1.0410001189364942e-01  1.1619700926744424e-01  1.1637832084127699e-01  1.0732344389107160e-01  9.0500252463047867e-02  6.4599203482054987e-02  3.5992801643351301e-02  8.4203538449985939e-03  -1.6922882825322966e-02  -3.3134227270220147e-02  -3.8622734171811370e-02  -2.1917446240519958e-02  5.6863499466823638e-03  4.7504685028029230e-02  9.4687414560911745e-02  1.3730253057126532e-01  1.7205683082955359e-01  1.9369810725125111e-01  1.9558570192812885e-01  1.8438499191846311e-01  1.5250061376444848e-01  1.0793488757773392e-01  5.2088284031921533e-02  4.2122135023604538e-03  -2.6341068626673694e-02  -2.8874052511859909e-02  -5.8905707542261220e-03  3.6165086730549509e-02  7.8944084732150560e-02  1.2375780360099911e-01  1.6275858123169312e-01  1.9725934369212803e-01  2.2496018690695066e-01  2.4102223589537974e-01  2.4470604148980427e-01  2.2930810067920271e-01  1.9614340613704756e-01  1.4776776191222404e-01  9.7562354647763055e-02  6.0293566738623253e-02  4.4340755888206650e-02  4.9579481855682346e-02  6.6914336273114064e-02  8.8024122534290275e-02  1.1086926025586766e-01  1.3269325370051635e-01  1.5733897945208677e-01  1.8655112508304483e-01  2.2261065296289259e-01  2.5583049331388541e-01  2.9620467964390651e-01  2.8864071550432646e-01  2.6313780540157766e-01  2.2457088538732703e-01  1.7466815371208830e-01  1.2006822691637707e-01  6.5449703167589732e-02  2.1872973943015697e-02  -1.2934905470633579e-02  -3.1861268858231574e-02  -3.7583005889221824e-02  -3.3938348131888896e-02  -2.5947678382216507e-02  -1.4630426524962705e-02  -3.2642823227868687e-03  7.8052705426629940e-03  1.9178861816628825e-02  3.2310137046950967e-02  4.7890133095548050e-02  6.6399571743751745e-02  8.8564022681454246e-02  1.1463855148139963e-01  1.4504075796978294e-01  1.7808574653867848e-01  2.1446849729132539e-01  2.5229035640184438e-01  2.8976621230172650e-01  3.2623031301377320e-01  3.5963304732996004e-01  3.8972207355383409e-01  4.1481997829360889e-01  4.3619515665871145e-01  4.5290318357944592e-01  4.6566443273569574e-01  4.7569826498221723e-01  4.8272252235713076e-01  4.8806197389577977e-01  4.9164597123529308e-01  4.9414593801883377e-01  4.9573035627534623e-01  4.9670325214390909e-01  4.9727569053359777e-01  4.9810924059182893e-01  5.0125852977519192e-01  5.0783829141320003e-01  5.1869980319629649e-01  5.3464606950671179e-01  5.5579538619642788e-01  5.8201091522527515e-01  6.1275102583599328e-01  6.4712999625698531e-01  6.8305917208348632e-01  7.1902893134409118e-01  7.5218147569934801e-01  7.7972065543632219e-01  8.0010206577562248e-01  8.1171861902674936e-01  8.1051260462357344e-01  7.9953856308920190e-01  7.7816221398213470e-01  7.4799726036378555e-01  7.1252582499916928e-01  6.7267611605171918e-01  6.3244336386777422e-01  5.9326933993861797e-01  5.5785674941947849e-01  5.2708211701474394e-01  5.0203032779777446e-01  4.8291375140401238e-01  4.6948971537312706e-01  4.6152811097219143e-01  4.5723360137800767e-01  4.5622430278737974e-01  6.8774453390350362e-02  6.2524934764189258e-02  5.3250628658302608e-02  4.7788088319694749e-02  4.4274840739283068e-02  2.1470982547043219e-02  3.1361818488041538e-04  7.2699472327474391e-03  5.0413718030092980e-02  1.2158202131104202e-01  2.0213930628152910e-01  2.6091243411816561e-01  2.9880637997191700e-01  3.1139505630687425e-01  3.0148367349023591e-01  2.8765157540103975e-01  4.4772616284221564e-02  -5.6556612577429791e-02  -2.3814749727098988e-02  1.1835002394257905e-02  -8.4691855435678233e-03  1.1636878146491234e-02  -4.3654105347892928e-02  1.5643772741378184e-01  -1.9241375171695721e-01  1.6366577629716836e-01  1.6437424357383512e-01  -7.3515311387884461e-02  -2.1584270562027541e-01  3.9605061082256922e-03  9.9283814363639533e-02  1.2055223898453210e-01  -8.4313921267471573e-03  1.8449709104841411e-01  -2.0155022306095596e-01  1.8193651482171994e-01  -1.6624983669385796e-01  -1.1144198742449303e-01  1.1921329683455231e-01  4.3956480235232208e-02  -1.1780337163899428e-01  1.9406033562130012e-02  2.4126860820754212e-01  7.2618631527226876e-02  -2.3294163818464333e-01  -2.1040081833386216e-02  7.2621089505565145e-02  1.3895930167820875e-01  2.7114583402749620e-01  2.7153594149583454e-01  -4.5447226190877266e-02  -3.4750681806577373e-02  -2.5700368069878732e-02  2.3454245905082889e-02  -2.3198886332953503e-02  -2.6274117272384215e-02  1.1909410513012293e-01  -4.6364917102896433e-02  -1.9756392664960740e-02  9.1432304394408428e-02  7.5157088669919964e-02  -1.8441200351713805e-02  3.5507088652356140e-02  1.1326419703927057e-01  9.7640806699717572e-02  -2.4187243633912080e-02  1.8805067132667161e-01  3.1679155177923753e-02  1.6202980764202393e-01  -7.7511897785002420e-02  -5.1611527745852814e-02  -2.6678187743052910e-02  6.3665438002944760e-02  -7.3590629236359312e-02  2.8822105548942508e-04  2.5665396035474047e-01  1.8624061914891685e-01  7.4518819778905843e-02  -1.0065193101648626e-01  -3.9782986792561342e-02  1.0046263501141010e-01  5.8977167807953867e-02  1.3490783600864237e-01  -1.5981065111192722e-01  -1.3755870082588739e-01  7.1721910837245814e-02  8.8058635497861623e-02  -6.7449897814329807e-02  -2.2991877819769982e-01  3.0768191898339545e-02  4.9315059015129309e-02  8.4480065498508353e-02  2.7020648647754508e-02  -4.3596864601775281e-02  2.0302766640082093e-01  -4.1828708361692446e-02  -1.3598314220701013e-01  1.6805173838082513e-01  2.2443115558561873e-02  2.3589056066638764e-01  -3.9044313440897663e-02  4.8314017497577397e-02  -4.9698689048928366e-02  2.1922281949440667e-01  -6.7480844078336849e-02  2.3150408124099600e-01  1.5512027775152976e-01  9.6894817408059386e-02  -7.8606288782227252e-02  9.0535878080134358e-03  1.3016897363716556e-01  1.0246221656029786e-01  1.5853946582163905e-01  -1.0536329697873771e-01  -5.0968576554765783e-02  5.9878100059286177e-02  2.5590360018341063e-01  1.5553550115263312e-01  -5.4312716249070588e-02  1.7576175288255860e-01  -4.6207843807171911e-02  -1.1491148233961836e-01  2.3514585901139060e-02  -1.0146985155674014e-02  1.7062315241762521e-01  4.8718448027917020e-02  -9.8277169929358206e-03  -1.3285484624529723e-03  1.6981463545126193e-02  9.1430041493877540e-02  -8.5457848319676830e-02  3.2751319298960926e-02  -8.1541012337647111e-03  -6.9969077102637516e-03  -1.4110076099849990e-02  -1.9084904685889654e-02  2.5387978083395857e-01  -2.3506861929582790e-02  4.0416829469296428e-03  1.4012499255772684e-01  1.1657074451485913e-01  4.4300125796689127e-02  1.4005169958010066e-01  1.2979001177629004e-01  1.1725638526196064e-01  -1.7071285839353190e-01  -2.3279194466142464e-01  -2.8249546794335001e-03  -7.8163026840051331e-02  1.2877712863532346e-02  2.5027839187597678e-01  1.3390247445894204e-01  7.3844486648003263e-02  1.1398303184238408e-01  -1.2579852635407915e-02  -4.8827227340778809e-02  2.3564901039798308e-01  1.0052990150462975e-02  4.3473116783604625e-02  -6.5000944925742155e-02  -1.6914222713767579e-02  2.5112675432419557e-01  -6.5326002771351449e-02  7.4556148747233542e-02  -1.3498741212922019e-01  -1.0934157983557868e-01  7.8903777579174730e-02  2.2363409303534953e-01  6.9822130990523934e-04  2.3976879444180001e-02  4.1434047713540735e-02  1.9075996522773273e-01  8.7572135879118676e-02  -1.0888403338311946e-01  -1.7715679574306570e-01  2.2918748286472387e-01  -1.8931202969357318e-02  8.0150216830986609e-02  2.5337211503121632e-01  9.9885102009363309e-03  7.1874373091656341e-02  2.6065495911671138e-01  -7.4691624797290551e-02  -9.8115130909486661e-02  1.5949996877316652e-01  -8.3040367848695992e-02  1.2444212045493852e-01  1.1186610633147644e-01  1.4482430884766299e-02  9.3245140560324305e-02  -4.5073106650491288e-02  -5.2269106277235168e-02  -1.2860162641730438e-01  -1.0121459514252405e-01  5.4146164013281400e-02  1.0326417849994768e-01  1.6051578748504824e-02  -5.9247750760577471e-02  5.9368005080030484e-02  -3.1487349612778590e-02  7.2716754151301369e-02  9.2950983614420168e-02  -1.5997229465774775e-02  2.4537728142347823e-01  2.2893978647092250e-02  2.0253167528752860e-02  4.7567393941342948e-02  1.5045991630484085e-02  7.0583869059087749e-03  1.1571120736146977e-01  1.8649236226862809e-01  -3.1911476055097483e-02  -2.7957682824051363e-02  -4.9007527340854853e-02  1.4322024768028874e-01  -3.2709329426072943e-02  7.7388648045012595e-02  -6.3464891254206457e-02  7.3392630388651625e-02  -1.9282351691039385e-02  1.1000067543159994e-01  7.8319166913101423e-02  1.3639017406424525e-01  5.1088959087015447e-02  8.2939643852221467e-02  1.8689643256959321e-01  -4.2411596614779917e-02  4.3887575961527696e-02  -1.0458997797998683e-01  -1.4263171161746175e-02  -1.1284850830657719e-01  1.7698048358068430e-02  2.8027866079796029e-02  -3.6407128469532465e-02  1.5631533134796016e-01  2.0091015465554049e-01  2.2426226443679434e-01  -2.9275423784543394e-02  -9.1312672103023365e-02  -6.3085831011611540e-02  2.0169356358551150e-02  1.1930604210966239e-01  1.7806849958376914e-01  -1.4947959533600064e-01  -9.9981195330462791e-02  1.7039374184202952e-01  -7.5792182301560165e-02  7.0997270709338015e-03  3.0131982649942358e-02  -1.1354215226484692e-01  2.0213696725757727e-01  8.2469401628179326e-02  1.5617658901144907e-01  2.8716625072571025e-02  2.1643375343982474e-01  -3.3962157378962916e-02  1.1696698888964983e-01  -3.3127422106091564e-03  2.4667533690915985e-01  -2.2086040075925564e-01  -1.9066503428083104e-01  -6.9687219253923060e-03  5.7955504085626967e-03  1.1286014072290262e-01  1.5139123825346382e-01  -1.2210190139350992e-01  2.2013411066131883e-01  3.5240263589026592e-02  6.5081057234893366e-02  3.0972127822325112e-03  3.4202269070841930e-02  9.6599539164409134e-03  1.5447593262727119e-02  2.3479706542996562e-01  -9.1900937279089795e-02  -3.2059297586661685e-02  1.3345409285341839e-01  -1.7456214651332423e-02  2.0141407420368995e-01  3.5733496064335020e-02  5.8121157197846843e-02  -4.6977823703184214e-02  -1.3208133593767324e-01  1.9897935715607100e-02  1.7909745631505139e-01  1.5318253760137712e-01  2.0805323094867745e-01  -4.5196683724248865e-04  1.9619215588657993e-01  3.6483359691733948e-02  -4.5688233858857757e-02  1.3042249466235403e-01  -8.9536274353354373e-02  1.2652034517959285e-01  1.9884401047126235e-01  2.0400021224475765e-02  -1.6394905706965949e-02  -1.2607773028681801e-02  -1.2915052575998055e-02  -1.2831867851155063e-01  -2.7162978964045240e-02  2.6358497266415126e-01  6.1199785145055051e-02  2.8984647094344836e-02  1.0856844981999285e-02  -3.4161163631385306e-02  8.2391146633435705e-02  2.5031096555894288e-02  5.3377847330481905e-02  2.4956419322011988e-01  2.2074863756620332e-02  -8.1851007009754284e-02  9.4282052471311384e-02  9.7744127484056878e-02  -1.1925550741467195e-01  2.7391991813614416e-02  1.4461818551816477e-01  -1.6012375138132179e-01  -5.8838493585495977e-02  -2.8114771596280844e-02  1.1255426921437989e-01  1.6727213985725575e-01  -7.1363363577238818e-03  -6.9716451091832207e-02  -1.7161218560089722e-01  -8.2239398273391787e-02  6.2423956059145545e-02  1.4050979456619067e-01  1.2469677835337825e-01  3.8482553907563485e-02  -2.1863673610642401e-02  2.7988180486354625e-01  -5.6786733612537339e-02  1.7522132154840228e-01  -1.1281109845327834e-01  -1.5265754026457303e-02  8.5808129434852068e-02  1.7988999168171990e-01  -2.8004008352515784e-02  2.0006346355182381e-01  1.2529905370034475e-01  1.3323912193683143e-01  -5.6394908609349446e-02  -2.2914124487696197e-01  2.0179885525526786e-01  -1.1453377686573044e-01  -5.1917894038048987e-02  1.0380008691731792e-01  2.1644804114128499e-01  6.0472678440838139e-02  -2.3788051534593548e-02  2.6876863694758252e-01  -1.3192992841464138e-01  1.2465329179033605e-01  1.0320420647594250e-01  6.1380461232147944e-02  3.6216454908301381e-02  6.6066444690729784e-03  1.5503522041868564e-01  2.8878738411498205e-02  -5.0968558735325652e-02  2.2899093773932580e-01  1.5958969111043469e-01  1.0110803252253166e-02  4.9680899820635366e-02  -6.7172764603188207e-03  -5.4746857484172087e-02  8.9511950053945674e-02  2.7035756128662297e-01  1.2787035306816510e-01  -8.2329809077683710e-02  3.3128985776939443e-02  2.0719865072982535e-01  -6.9189595092283160e-02  1.1737769875086591e-01  3.5436774613504703e-02  -4.0980839387360773e-02  1.2480105902623519e-01  4.2584288878739961e-02  7.5036626890521319e-02  2.3660316150914629e-01  -2.6234114920721131e-02  -3.5617515286733181e-02  2.4977995937578867e-01  -3.6971799275522708e-02  -5.8761170451949250e-02  2.3445857365861144e-02  2.0175063145937655e-01  2.5877283807624437e-02  2.4838585289616838e-01  1.4233495793052325e-01  1.1028668775903802e-01  2.1251486504490623e-02  -6.5196836188495005e-02  9.7782705756694802e-02  2.2595215346525765e-01  1.8265406464408324e-01  9.1076265812426865e-02  2.4267862275224421e-02  -7.8164831135986712e-02  1.3892816471130998e-01  -1.0453617355519078e-01  1.3826447059649472e-01  1.3007337030703783e-01  -1.0417040489949020e-01  4.7848462923008490e-02  -3.1237226520201139e-02  1.3955217433724446e-01  -2.2062942610141807e-02  -4.4135298421396053e-02  7.0670397570863144e-02  -2.6604695440067581e-02  -1.1264557230403288e-01  1.7287283221526870e-02  -1.1407456626587797e-01  -5.2880040421375819e-02  6.7696840517070270e-02  -4.6817976564308507e-02  -6.9624035144005642e-02  9.0461630983148397e-02  4.3185117682907601e-02  1.6911652034755864e-01  6.8530601434954014e-02  -2.1690858402311913e-02  -7.8246427683526965e-02  -1.7750305814775724e-02  3.4954951387067078e-02  -1.2838759603720526e-01  -8.8647774122947803e-02  -1.5235676101125573e-01  3.4570950202545463e-02  1.6684037656943779e-01  2.3398001934392401e-01  -1.1888948984863161e-02  -2.0111010815994507e-02  1.4932170958052149e-01  -1.0550482200802157e-01  -4.1397387702025055e-03  3.2995091940627837e-02  