<?xml version="1.0"?>
<VTKFile type="UnstructuredGrid"  version="0.1"  >
<UnstructuredGrid>
<Piece  NumberOfPoints="4826" NumberOfCells="9274">
<Points>
<DataArray  type="Float64"  NumberOfComponents="3"  format="ascii">0.004357787137616029 0.04980973490456689 0  2.448294430073374e-13 0.05 0  -0.004357787137128233 0.04980973490460956 0  -0.004357787137605706 -0.04980973490456778 0  -2.344882876518267e-13 -0.05 0  0.004357787137138513 -0.04980973490460866 0  -0.2 -0.2 0  0.55 -0.2 0  2 -0.2 0  2 0.21 0  0.55 0.21 0  -0.2 0.21 0  0.002180969368511386 0.0499524110790822 0  -0.002180969368010819 0.04995241107910407 0  -0.002180969368502513 -0.04995241107908259 0  0.002180969368021486 -0.0499524110791036 0  -0.006814597157868607 0.04953343583455493 0  -0.009254746151924908 0.04913603233537922 0  -0.01167226819248128 0.04861849601995923 0  -0.01406125267347753 0.04798209221420657 0  -0.01641585876037609 0.04722837686348521 0  -0.01873032967049142 0.04635919272846228 0  -0.02099900674774951 0.04537666487973717 0  -0.0232163432975249 0.04428319550226104 0  -0.0253769181477669 0.04308145802223435 0  -0.02747544890327456 0.04177439057082161 0  -0.02950680486062692 0.04036518880070902 0  -0.03146601955223609 0.03885729807305569 0  -0.0333483028888871 0.03725440503391573 0  -0.03514905287103829 0.03556042860074884 0  -0.03686386684027007 0.03377951038104073 0  -0.0384885522433417 0.0319160045464898 0  -0.04001913688258778 0.02997446718746979 0  -0.04145187862754741 0.0279596451738408 0  -0.04278327456411638 0.0258764645493049 0  -0.04401006955882648 0.02373001848771415 0  -0.04512926421732728 0.02152555484076227 0  -0.04613812221762188 0.01926846330748221 0  -0.04703417700009761 0.01696426225697686 0  -0.04781523779803292 0.0146185852365256 0  -0.04847939499380464 0.01223716719811699 0  -0.04902502478771633 0.009825830477053876 0  -0.04945079316803359 0.007390470556897103 0  -0.04975565917250895 0.004937041655599784 0  -0.04993887743343513 0.002471542168028815 0  -0.05000000000000002 4.319617580295088e-13 0  -0.04993887743347691 -0.002471542167184487 0  -0.04975565917259078 -0.004937041654775128 0  -0.0494507931681559 -0.007390470556078771 0  -0.04902502478787634 -0.00982583047625548 0  -0.048479394994003 -0.01223716719733118 0  -0.04781523779827011 -0.01461858523574979 0  -0.04703417700037211 -0.01696426225621582 0  -0.04613812221792003 -0.01926846330676828 0  -0.04512926421765873 -0.0215255548400674 0  -0.0440100695591652 -0.02373001848708596 0  -0.04278327456447995 -0.0258764645487038 0  -0.04145187862791943 -0.02795964517328926 0  -0.04001913688296869 -0.02997446718696123 0  -0.03848855224374843 -0.03191600454599933 0  -0.03686386684070041 -0.03377951038057109 0  -0.03514905287149575 -0.03556042860029668 0  -0.03334830288936536 -0.03725440503348761 0  -0.03146601955271191 -0.03885729807267038 0  -0.02950680486109357 -0.0403651888003679 0  -0.02747544890375341 -0.04177439057050667 0  -0.02537691814821718 -0.0430814580219691 0  -0.02321634329799415 -0.04428319550201502 0  -0.02099900674823039 -0.04537666487951462 0  -0.01873032967097447 -0.04635919272826711 0  -0.0164158587608675 -0.0472283768633144 0  -0.01406125267397827 -0.04798209221405982 0  -0.01167226819300015 -0.04861849601983465 0  -0.00925474615244812 -0.04913603233528067 0  -0.006814597158347743 -0.04953343583448901 0  0.006814597157865879 -0.04953343583455529 0  0.009254746151927097 -0.0491360323353788 0  0.01167226819248615 -0.04861849601995805 0  0.01406125267347329 -0.04798209221420779 0  0.01641585876037412 -0.04722837686348589 0  0.01873032967049753 -0.04635919272845981 0  0.02099900674775168 -0.04537666487973616 0  0.02321634329751479 -0.04428319550226633 0  0.02537691814775486 -0.04308145802224143 0  0.02747544890326525 -0.04177439057082774 0  0.02950680486061762 -0.04036518880071581 0  0.03146601955222702 -0.03885729807306303 0  0.0333483028888813 -0.03725440503392092 0  0.03514905287103634 -0.03556042860075076 0  0.03686386684026893 -0.03377951038104196 0  0.03848855224333972 -0.03191600454649218 0  0.04001913688258468 -0.02997446718747393 0  0.04145187862754592 -0.02795964517384301 0  0.04278327456411439 -0.02587646454930818 0  0.04401006955882308 -0.02373001848772046 0  0.04512926421732501 -0.02152555484076704 0  0.04613812221761816 -0.01926846330749109 0  0.04703417700009521 -0.01696426225698355 0  0.04781523779803072 -0.01461858523653281 0  0.04847939499380377 -0.01223716719812044 0  0.04902502478771547 -0.009825830477058137 0  0.04945079316803235 -0.007390470556905473 0  0.04975565917250727 -0.004937041655616693 0  0.0499388774334346 -0.002471542168039619 0  0.05 -4.403257272689309e-13 0  0.04993887743347755 0.002471542167171875 0  0.04975565917259197 0.004937041654763091 0  0.04945079316815711 0.007390470556070629 0  0.04902502478787914 0.009825830476241509 0  0.04847939499400326 0.01223716719733013 0  0.04781523779826526 0.01461858523576567 0  0.0470341770003617 0.01696426225624468 0  0.04613812221791593 0.01926846330677807 0  0.04512926421764892 0.02152555484008794 0  0.04401006955917259 0.02373001848707224 0  0.04278327456448917 0.02587646454868855 0  0.04145187862794129 0.02795964517325684 0  0.04001913688300011 0.02997446718691929 0  0.03848855224377164 0.03191600454597132 0  0.03686386684071396 0.03377951038055631 0  0.03514905287149344 0.03556042860029895 0  0.03334830288935025 0.03725440503350112 0  0.03146601955270811 0.03885729807267346 0  0.0295068048611069 0.04036518880035816 0  0.02747544890376348 0.04177439057050004 0  0.02537691814825449 0.04308145802194713 0  0.02321634329801946 0.04428319550200175 0  0.02099900674825754 0.04537666487950205 0  0.01873032967100249 0.04635919272825579 0  0.0164158587608822 0.04722837686330929 0  0.01406125267398022 0.04798209221405924 0  0.01167226819298624 0.04861849601983799 0  0.009254746152419701 0.04913603233528602 0  0.006814597158349477 0.04953343583448876 0  -0.187519667561546 -0.2 0  -0.1748316574821168 -0.2 0  -0.1619325192212862 -0.2 0  -0.148818726846035 -0.2 0  -0.1354867192353635 -0.2 0  -0.1219328603917423 -0.2 0  -0.1081534592978099 -0.2 0  -0.09414476589796635 -0.2 0  -0.07990295884356099 -0.2 0  -0.06542416303692469 -0.2 0  -0.05070442887227664 -0.2 0  -0.03573975841838681 -0.2 0  -0.02052606515274366 -0.2 0  -0.005059208927244263 -0.2 0  0.01066502121897589 -0.2 0  0.0266509074223695 -0.2 0  0.04290280916834216 -0.2 0  0.05942514657702952 -0.2 0  0.0762224259839136 -0.2 0  0.09329921648059353 -0.2 0  0.110660175036538 -0.2 0  0.1283100227830172 -0.2 0  0.1462535753141169 -0.2 0  0.1644957199166657 -0.2 0  0.1830414159977267 -0.2 0  0.2018957233573105 -0.2 0  0.2210637763821503 -0.2 0  0.2405507887204602 -0.2 0  0.260362079066015 -0.2 0  0.2805030358280229 -0.2 0  0.3009791451426284 -0.2 0  0.3217959904068706 -0.2 0  0.3429592343744705 -0.2 0  0.3644746437000989 -0.2 0  0.3863480795092348 -0.2 0  0.4085854991020529 -0.2 0  0.4311929577241948 -0.2 0  0.4541766164908302 -0.2 0  0.4775427321916551 -0.2 0  0.5012976684604897 -0.2 0  0.5254479006641548 -0.2 0  0.5749999999999358 -0.2 0  0.5999999999998969 -0.2 0  0.6249999999998155 -0.2 0  0.6499999999998081 -0.2 0  0.6749999999997656 -0.2 0  0.6999999999997664 -0.2 0  0.7249999999997357 -0.2 0  0.7499999999996745 -0.2 0  0.7749999999995796 -0.2 0  0.7999999999995281 -0.2 0  0.8249999999994608 -0.2 0  0.8499999999994138 -0.2 0  0.8749999999993301 -0.2 0  0.8999999999992546 -0.2 0  0.9249999999991836 -0.2 0  0.9499999999990955 -0.2 0  0.9749999999990373 -0.2 0  0.9999999999989423 -0.2 0  1.024999999998847 -0.2 0  1.049999999998752 -0.2 0  1.074999999998672 -0.2 0  1.099999999998649 -0.2 0  1.124999999998554 -0.2 0  1.149999999998545 -0.2 0  1.174999999998451 -0.2 0  1.199999999998416 -0.2 0  1.224999999998348 -0.2 0  1.249999999998288 -0.2 0  1.274999999998288 -0.2 0  1.299999999998246 -0.2 0  1.324999999998369 -0.2 0  1.349999999998394 -0.2 0  1.37499999999845 -0.2 0  1.399999999998551 -0.2 0  1.424999999998531 -0.2 0  1.449999999998684 -0.2 0  1.474999999998642 -0.2 0  1.499999999998804 -0.2 0  1.524999999998773 -0.2 0  1.549999999998885 -0.2 0  1.574999999999013 -0.2 0  1.599999999999079 -0.2 0  1.624999999999119 -0.2 0  1.649999999999211 -0.2 0  1.674999999999224 -0.2 0  1.699999999999321 -0.2 0  1.724999999999342 -0.2 0  1.749999999999427 -0.2 0  1.774999999999474 -0.2 0  1.799999999999533 -0.2 0  1.824999999999605 -0.2 0  1.849999999999639 -0.2 0  1.874999999999735 -0.2 0  1.899999999999745 -0.2 0  1.924999999999841 -0.2 0  1.949999999999869 -0.2 0  1.974999999999947 -0.2 0  2 -0.1758823529412649 0  2 -0.1517647058824698 0  2 -0.12764705882371 0  2 -0.103529411764951 0  2 -0.07941176470620959 0  2 -0.05529411764745706 0  2 -0.03117647058865336 0  2 -0.007058823529918185 0  2 0.01705882352889865 0  2 0.04117647058779714 0  2 0.06529411764668486 0  2 0.08941176470558332 0  2 0.1135294117644398 0  2 0.137647058823337 0  2 0.1617647058822356 0  2 0.185882352941134 0  1.975000000000015 0.21 0  1.950000000000055 0.21 0  1.925000000000061 0.21 0  1.90000000000011 0.21 0  1.875000000000116 0.21 0  1.850000000000166 0.21 0  1.825000000000172 0.21 0  1.800000000000206 0.21 0  1.775000000000227 0.21 0  1.750000000000322 0.21 0  1.725000000000369 0.21 0  1.700000000000375 0.21 0  1.675000000000454 0.21 0  1.650000000000517 0.21 0  1.62500000000057 0.21 0  1.600000000000658 0.21 0  1.575000000000687 0.21 0  1.550000000000789 0.21 0  1.525000000000806 0.21 0  1.500000000000905 0.21 0  1.475000000001007 0.21 0  1.450000000001109 0.21 0  1.42500000000121 0.21 0  1.400000000001312 0.21 0  1.375000000001406 0.21 0  1.350000000001428 0.21 0  1.32500000000153 0.21 0  1.300000000001554 0.21 0  1.275000000001647 0.21 0  1.250000000001522 0.21 0  1.225000000001572 0.21 0  1.200000000001437 0.21 0  1.175000000001446 0.21 0  1.15000000000137 0.21 0  1.125000000001303 0.21 0  1.100000000001302 0.21 0  1.075000000001145 0.21 0  1.050000000001136 0.21 0  1.025000000000966 0.21 0  1.000000000000931 0.21 0  0.9750000000008732 0.21 0  0.9500000000008135 0.21
[...]
<PointData  Scalars="pressure"> 
<DataArray  type="Float64"  Name="pressure"  format="ascii">-7.9407458170211775e-01  -7.3057012321758119e-01  -8.0405211220504957e-01  -1.0636157022364454e+00  -1.0307343978106622e+00  -8.4321227108617836e-01  4.5518268087524727e-01  1.1916102905863117e-01  0.0000000000000000e+00  0.0000000000000000e+00  2.0666964745645819e-01  5.0147847464664175e-01  -7.5104413475243692e-01  -7.3703690598874283e-01  -1.0863586448090650e+00  -9.4660257909208301e-01  -8.0989438112559031e-01  -8.2284452441677725e-01  -8.2292177954113244e-01  -8.1117568464219503e-01  -7.8593813028433546e-01  -7.4391977833637246e-01  -6.8775471033124314e-01  -6.1776981780190054e-01  -5.2987330419087997e-01  -4.2491822003091984e-01  -3.0593618147293405e-01  -1.7739094694751120e-01  -3.6946447346272726e-02  1.1880586241943496e-01  2.7716088173268338e-01  4.4547352200447754e-01  6.1422445261002168e-01  7.8080342736438579e-01  9.5210971108911024e-01  1.1105617645719437e+00  1.2691524857476120e+00  1.4135650406855829e+00  1.5457397765320906e+00  1.6657271358522037e+00  1.7668788237254702e+00  1.8498588153404887e+00  1.9141435530465747e+00  1.9590948300302984e+00  1.9784109350780184e+00  1.9777714571824538e+00  1.9552470043382191e+00  1.9096675165023256e+00  1.8439534128042598e+00  1.7566856413104817e+00  1.6521328540353055e+00  1.5321738056236505e+00  1.3929180019394929e+00  1.2449114752401627e+00  1.0826708262245754e+00  9.1172107519462431e-01  7.3660302973700154e-01  5.5660590108096641e-01  3.7955722089480382e-01  2.0324878328450369e-01  2.5520306812018230e-02  -1.3291322905488509e-01  -2.9562639126399559e-01  -4.3961461137452457e-01  -5.7306397477244198e-01  -6.9449614834922779e-01  -8.0207265691375484e-01  -8.9009483092118891e-01  -9.6858796965982852e-01  -1.0240677632421509e+00  -1.0704076915131173e+00  -1.0968601618464564e+00  -1.1110773409197596e+00  -1.1111251877460031e+00  -1.1001434973388207e+00  -8.2675675265487647e-01  -7.8896637086411270e-01  -7.4981810792322723e-01  -7.1116687506237175e-01  -6.7533142512688404e-01  -6.4226712704170130e-01  -6.1240845156686718e-01  -5.8566401527014156e-01  -5.6196310752888867e-01  -5.4135795869390135e-01  -5.2325794030718353e-01  -5.0832455850560820e-01  -4.9620536719692215e-01  -4.8620117129644908e-01  -4.7851215048156137e-01  -4.7248100111096536e-01  -4.6820917920734634e-01  -4.6453907376381798e-01  -4.6152315290690116e-01  -4.5854595086568262e-01  -4.5505269938158155e-01  -4.5127811716440625e-01  -4.4660589635228648e-01  -4.4108712776313014e-01  -4.3519483147957877e-01  -4.2818062914776067e-01  -4.2116257828568765e-01  -4.1371227564082225e-01  -4.0649941407153051e-01  -3.9979475821662014e-01  -3.9372890496167023e-01  -3.8870588201358597e-01  -3.8506017450940500e-01  -3.8230795366127374e-01  -3.8112747727186819e-01  -3.8105043206916667e-01  -3.8207027668030885e-01  -3.8400053060298878e-01  -3.8690870279600936e-01  -3.9040538839668365e-01  -3.9450275110517385e-01  -3.9920930895327006e-01  -4.0444980313676293e-01  -4.1016181499568316e-01  -4.1650561049149276e-01  -4.2367958109813519e-01  -4.3173033643458231e-01  -4.4116694144002794e-01  -4.5191680927104466e-01  -4.6486488591848518e-01  -4.7978802760730677e-01  -4.9764131817035795e-01  -5.1828217680226440e-01  -5.4229049890701231e-01  -5.6963849000865230e-01  -6.0053044421375812e-01  -6.3466693972472210e-01  -6.7297016324745129e-01  -7.1192577836311455e-01  4.5455238084737265e-01  4.5372270790121322e-01  4.5185278824259750e-01  4.4905771848449044e-01  4.4449575942726988e-01  4.3774868401936073e-01  4.2790303535699326e-01  4.1452016959034976e-01  3.9627117629876318e-01  3.7303806624885072e-01  3.4414817612261844e-01  3.0870318458739926e-01  2.6914992729883730e-01  2.2414576307340256e-01  1.7727891360399264e-01  1.3060194036012349e-01  8.5256328142891163e-02  4.2168079295568262e-02  6.4252005848017936e-03  -2.5491356560573879e-02  -4.8620900154549555e-02  -6.5824066423264382e-02  -7.4853371261409202e-02  -7.9596647735678594e-02  -7.5546314361533640e-02  -6.5868983494663788e-02  -4.8813439725636343e-02  -2.3215786155449617e-02  1.0351863496590369e-02  5.2987432610402153e-02  1.0508227404575668e-01  1.6074918117481285e-01  2.1634068196263334e-01  2.6561937789219164e-01  3.0251864969815417e-01  3.2336889810239933e-01  3.2044991292468861e-01  2.9767162085585491e-01  2.5215231078712652e-01  1.9988608452553511e-01  1.5345601472569456e-01  9.9174068535260701e-02  9.0532113331019445e-02  8.3217158636976360e-02  7.4548452205157392e-02  6.9762663289561044e-02  7.8178468170757617e-02  1.0305134928956776e-01  1.4143400474543005e-01  1.8389894787981528e-01  2.1907500811113342e-01  2.4196730582506978e-01  2.4806362965815862e-01  2.3941132977871227e-01  2.2239691257980271e-01  1.9719758817593411e-01  1.6656471895345260e-01  1.3154672423700922e-01  9.3184383214369171e-02  5.0105238553171678e-02  8.9179756795935289e-03  -1.8422439173617761e-02  -2.4917248647406499e-02  1.6411855121256402e-03  5.0913343825271885e-02  1.0856127366124822e-01  1.6541281509731021e-01  2.0485412632791367e-01  2.2595572147579907e-01  2.2429219336215631e-01  2.0677466441782702e-01  1.7280259698028980e-01  1.2493562516805624e-01  7.2024559206278871e-02  2.0618395554793743e-02  -2.2350523406678823e-02  -4.3634948363533703e-02  -5.0119304906469958e-02  -4.0916062580972100e-02  -1.5330713408954349e-02  1.5918394631739042e-02  5.0377521049979009e-02  8.3452029274698747e-02  1.0895321498518087e-01  1.2583677277181587e-01  1.3003346992109738e-01  1.2431852995885323e-01  1.0714485191368783e-01  8.2728093336237193e-02  5.1473958399877312e-02  1.8274863592705741e-02  -1.1911199674923807e-02  -3.8446285023438345e-02  -5.5463906737043878e-02  -6.1374831849334621e-02  -5.5604698071781956e-02  -4.0071586991182996e-02  -2.0584452067093327e-02  0.0000000000000000e+00  0.0000000000000000e+00  0.0000000000000000e+00  0.0000000000000000e+00  0.0000000000000000e+00  0.0000000000000000e+00  0.0000000000000000e+00  0.0000000000000000e+00  0.0000000000000000e+00  0.0000000000000000e+00  0.0000000000000000e+00  0.0000000000000000e+00  0.0000000000000000e+00  0.0000000000000000e+00  0.0000000000000000e+00  0.0000000000000000e+00  2.6355264989234326e-02  5.0381759698728781e-02  6.9116056991802788e-02  8.0910627771837718e-02  8.1207433855899194e-02  7.2267538863188846e-02  5.6396748522039956e-02  3.4262849043336395e-02  1.0946003772949506e-02  -9.2739744006698210e-03  -2.8295021426581829e-02  -3.9520215477696234e-02  -4.1390079202082770e-02  -3.2686991309123128e-02  -1.1687462181610458e-02  1.9094624204160970e-02  5.6506187387825736e-02  9.4139794065900409e-02  1.2844008385158848e-01  1.5500495850858137e-01  1.6944078032322843e-01  1.7066150186026982e-01  1.5730040376071658e-01  1.2726898563601305e-01  8.7701804177471601e-02  4.0030733569499155e-02  -8.2201893313067105e-03  -3.7717160463981679e-02  -4.5829295553840688e-02  -2.4105990157571609e-02  1.4484991184748233e-02  6.4485321196976905e-02  1.1510816249471156e-01  1.5929276492204042e-01  1.9914305620622527e-01  2.2748011744102134e-01  2.4634368765191428e-01  2.4828629993641724e-01  2.2677354467893918e-01  1.8447598156990053e-01  1.2971455610970964e-01  7.2941909695987808e-02  3.4773450533900560e-02  2.0245132477016592e-02  3.1914748301454327e-02  5.4150799447730380e-02  8.5987755515307393e-02  1.1649277727256617e-01  1.4455090250924302e-01  1.7064819265802875e-01  1.9290914849652982e-01  2.1425693296829981e-01  2.3382962429925946e-01  2.4933903656625092e-01  2.5624490731231797e-01  2.5213598502720003e-01  2.3645344698160561e-01  1.6783627103329352e-01  1.2579695086334727e-01  7.7743456498182054e-02  3.5453839366876627e-02  6.9892951548698604e-04  -1.7668828121171883e-02  -2.5148129624441233e-02  -1.2648279960546471e-02  8.6385363510565819e-03  3.4517918672284022e-02  5.7672020234401350e-02  7.6986549223963099e-02  8.8217315848294536e-02  9.4393069718168396e-02  9.6962819432051886e-02  9.6705751531107179e-02  9.5854467645575647e-02  9.5731110465058666e-02  9.8642598992229283e-02  1.0565594185537673e-01  1.1642572140350363e-01  1.3334693387514274e-01  1.5570158022548947e-01  1.8229194367920426e-01  2.1372497998558654e-01  2.4773811996604245e-01  2.8278648138030710e-01  3.1782726153412233e-01  3.5083993491854171e-01  3.8115572769868272e-01  4.0724359319800341e-01  4.3001915154162712e-01  4.4836523003666839e-01  4.6289857135513068e-01  4.7467191048609325e-01  4.8323816545171955e-01  4.8989883290323499e-01  4.9447228460167764e-01  4.9764907063690050e-01  4.9963259581057584e-01  5.0077411890176438e-01  5.0135467026133618e-01  5.0233534911876743e-01  5.0576128243326290e-01  5.1270876307017998e-01  5.2398730271417826e-01  5.4034462668212468e-01  5.6186143989299564e-01  5.8834967348456513e-01  6.1923031612331170e-01  6.5357257445666361e-01  6.8925752356063574e-01  7.2476509712714143e-01  7.5722426968484258e-01  7.8385274324416343e-01  8.0316116768376955e-01  8.1357479223221052e-01  8.1111409706483661e-01  7.9892455669057483e-01  7.7643771853491139e-01  7.4533634265872306e-01  7.0912666054603035e-01  6.6880350941965983e-01  6.2832086279865884e-01  5.8915120891716155e-01  5.5392447207641970e-01  5.2349869038582497e-01  4.9889430915432958e-01  4.8028736187597154e-01  4.6735875993232628e-01  4.5983078879261186e-01  4.5587522653424362e-01  4.5503829922196709e-01  1.1456118008404299e-01  1.0107015151306520e-01  8.5093061035044382e-02  7.8825829387226307e-02  7.1598751883450731e-02  5.2050497793672761e-02  1.1477156732612173e-02  -2.9008468491487045e-02  -4.9690380301789974e-02  1.9607258857460346e-03  7.0409502390262182e-02  1.4204841256911305e-01  1.8152259502148504e-01  1.9584172632909277e-01  2.0612101615623185e-01  2.0568791595263786e-01  -1.3289394899397575e-01  -1.9204210573728796e-02  -3.3494535502565509e-02  -2.9055738060100270e-02  6.3137546732011926e-02  -6.1530407658189838e-02  -5.4422200746501920e-02  -2.7511577117009741e-02  5.6914959319033134e-02  1.3105281651146783e-01  1.0000494364535327e-01  1.3705341443688229e-01  3.4094695524405708e-03  1.0114249645706970e-01  2.2742616159418158e-01  -4.8737737758538367e-02  -1.2369767487156740e-01  2.5157912186696885e-01  -1.5545888998716135e-02  6.1104736743870396e-02  5.4013016130485536e-02  1.2489469998897042e-01  -6.4263770079382290e-02  -1.3599300972549039e-01  3.5391443161456267e-02  1.5229651203215844e-01  -1.5606862566452301e-01  2.3930763394850868e-01  4.9006475550793453e-02  -7.0947255203857876e-02  2.0187518041896985e-01  -1.3594813274496101e-01  9.9870320851152231e-02  -9.6413299568738189e-02  -2.0104164476186639e-02  -2.6226184055238529e-02  -2.0834436985486069e-02  2.4652544679162733e-01  2.1173330936144863e-03  -1.3900512935470656e-02  3.2950944528858488e-02  2.9951125227122961e-03  3.3603963910974206e-02  1.3290093459359706e-01  1.9182629792430914e-01  1.0595904686054242e-01  5.0148752678372426e-02  -1.3706380298690402e-01  7.5429560136807822e-02  8.6165653660250849e-02  2.7813411275574901e-01  -7.9957838729583564e-02  -4.5342153613515949e-02  -6.3921555062588162e-03  1.1800124301722495e-01  -3.1863291896000089e-02  -6.6005126748309134e-02  1.2358821253467607e-01  8.4348361843585629e-02  1.2493473267638332e-01  2.7204546020386522e-01  -1.1433641392952355e-01  -8.9855897143648819e-02  -4.7395276986672411e-02  2.1326037191201161e-01  1.1922679424501242e-01  -7.1249816780787525e-02  4.8962855156998976e-02  6.7733369393500081e-02  2.3081706214398527e-02  2.2225599029599005e-01  6.3669975557744937e-02  4.3247413065787686e-02  -1.2106723298036545e-01  1.1450006467535034e-01  -5.7858333272482659e-02  3.0887671083498661e-02  -9.6147648248747455e-02  -2.9726843321869301e-01  1.5314727908330272e-01  1.0454425486694968e-01  2.5945323102725776e-01  -1.7293876013095202e-01  4.2622271919981740e-02  9.5119510170126778e-02  8.8627224613544012e-02  -9.0484947023560136e-02  3.2132221018807111e-02  8.8057274236278404e-02  2.3952952085750254e-01  1.1201310996509556e-01  1.6877196896774341e-01  1.5288447460294718e-01  -1.0457604577783496e-01  -2.2653451272881230e-02  -6.2554269004922183e-02  1.4362137081609652e-04  9.7083662232350047e-03  5.8336283226181833e-02  -4.5229554945102848e-02  1.1956186754029470e-01  5.0677473955115619e-02  -3.7366306744238693e-02  2.3319941906092087e-01  -6.0531876789045877e-03  -2.9302624113918985e-02  1.2409777139816480e-01  1.9246728788839011e-03  1.5119902465995846e-01  -1.5410843472911920e-01  1.6999520707033011e-01  7.6217338149960805e-04  1.4374293887235648e-01  -8.1030629664504444e-02  6.3582170757218823e-02  1.4459428834099955e-01  -2.1914114480528671e-02  1.0122426709314621e-02  3.9353948592059929e-02  -1.0018880874372601e-02  -6.7895826655647610e-03  6.9531530638485091e-03  -7.2487131986918113e-02  2.5123469498309403e-01  2.5823359917781047e-01  1.8312444536968192e-01  -1.6956881182588379e-01  -1.5941891681597691e-02  -7.7236654872003527e-02  1.9170752943915959e-02  5.2680868269007100e-02  -6.8657731633733302e-02  1.7302910290412959e-01  -3.2391307702214739e-02  -5.1764058072170521e-03  2.6178475669585538e-01  4.4884067447082676e-02  6.9027060559157152e-02  5.0106043140068397e-02  6.6223185078105734e-02  2.5985072958887900e-01  6.1503852217295388e-02  -7.0825665913483271e-02  7.2996914447249178e-02  1.6419613304611566e-01  1.0473553971148103e-01  -6.0926254780294446e-02  2.0383740503135966e-01  1.0074472804207252e-01  9.6059450785130521e-02  2.0969818519769431e-01  -1.2280722562272772e-01  -1.4651436741884538e-01  1.4025982346255611e-01  -8.8194462255301795e-02  -6.5358816054987126e-02  -1.3127699974792748e-01  -1.7260846025177572e-02  1.8951104703325176e-02  2.0554837354010949e-01  -5.4917081097547490e-02  3.9179506758747880e-02  2.3997279486173667e-02  -5.8475140413405118e-02  -6.0564959239815405e-02  -8.8934568926848548e-02  -1.1872185360637515e-02  5.7143749411297788e-02  7.0550815121967772e-02  -1.0362245656024245e-01  -1.1453740251663141e-01  1.4000025801431956e-01  -4.3033571449088884e-02  5.4441561382081567e-02  -7.1030393294824079e-02  -3.6693267976318819e-02  -1.6061086730814710e-02  4.7447686574496030e-02  2.2882574400644212e-02  -4.4034139093601050e-02  2.2038632755954832e-01  1.4358344936693440e-01  -1.8686341729412542e-01  -1.1360083057523886e-01  6.9477973915199540e-02  8.7863635048029659e-02  4.4263333826289310e-02  2.5373932200641935e-01  -3.7734009174222156e-02  3.3168699744848672e-02  1.4057407650092921e-01  1.5185548493565995e-01  8.7677645707809074e-02  2.2778054856142313e-01  -3.5503484526748119e-02  2.3834939831912511e-02  1.1515658114092384e-01  -1.2215212614744176e-03  2.4312072519945244e-01  5.4237973828801779e-02  1.8370218110554953e-01  1.4715693562125968e-03  -2.2458035703568674e-01  8.0765570627743671e-02  1.0452104987082458e-01  -1.2573798306373755e-02  1.5413195626161669e-01  9.5935621709997851e-02  1.8075545826605025e-01  -4.8153266145339657e-02  -4.4532340915365475e-02  2.1091110561851389e-01  5.9956882922243063e-02  -8.5861539015792770e-02  -7.9938330609822958e-02  5.6945795514599662e-02  -1.2055887284451078e-01  1.0575748711366419e-01  2.6695413239778787e-01  1.9957003023827702e-01  1.6865836143729709e-01  1.5454503829628122e-01  5.9941049854469415e-02  7.1125095578800215e-02  1.5545842178354304e-02  1.6469673973205014e-02  -4.8577465611144913e-03  7.6883814241333573e-02  4.0995997023745623e-02  3.4989491931988338e-02  -3.8830821441135665e-03  -7.6718707459455873e-02  -2.3613767629844875e-02  7.1231261821536676e-02  2.5250401271815215e-01  5.2710717452646091e-02  2.4403738995844872e-03  -1.2763932510003878e-01  2.1425763795827474e-01  1.5309025263295986e-01  2.5394100043570789e-01  -9.3534872926631207e-02  1.7871091847409878e-01  4.9533217881024875e-04  8.4060494468230468e-02  -9.5478896037274712e-03  3.1687970825990085e-02  -5.8572852645203531e-02  -1.8557939211295554e-01  -2.3762872004903984e-02  1.8069134839324472e-01  1.6458921128081960e-01  -1.1138396975048853e-01  1.0434933608187516e-01  -1.2623033620961444e-02  5.7860218533911531e-02  2.5108784777026914e-02  -1.4461521966922037e-02  1.4841322787645791e-02  1.2713182091874875e-01  -4.2180019486076865e-02  -4.4735126993263117e-04  2.7408163004100972e-01  1.0505654205905393e-01  1.5613033400991141e-01  -1.0454312896815225e-01  8.4143104346070599e-02  -6.5563169338711813e-02  2.6352215783482352e-01  6.3539420064602878e-02  9.6453627383141408e-02  -8.9434195661498225e-02  -7.5976352690218213e-02  -2.1116410348376431e-02  1.7081875136860178e-01  -2.2101554555278988e-01  1.8850265829015314e-01  -6.4235600071773313e-02  9.3958221400748096e-02  5.1502941105176031e-02  -1.9936240686410114e-02  1.1809672298125974e-01  5.8351995340061170e-02  -1.6129717160396704e-03  4.7686940172048380e-02  2.5113656449570942e-01  6.8083387780010066e-02  -4.0286368460452096e-02  -1.3787815336594109e-02  1.2579354550492089e-01  1.1345366719506646e-01  -5.2505112337878627e-02  -4.8702499356059081e-02  9.6862168175982866e-02  -1.1471081789666491e-02  -4.3753972088668588e-02  1.2306521960371999e-01  2.3407960127291877e-01  4.8553923654815291e-02  -6.3043401326985410e-02  -8.4382026690914047e-02  3.7902889862057962e-02  1.1536352086974209e-01  -4.6117965070598413e-02  2.1794100317441109e-01  2.5769890659168282e-01  5.7103802401745646e-02  9.5260915534498808e-02  -2.3014011657133834e-02  5.6034787060354110e-03  1.7539219514701118e-01  -8.9749736927831475e-03  2.5111033323075554e-01  -1.5043250645575013e-01  -8.1132817432528953e-02  -1.0021280463202562e-02  4.3845379167203540e-02  2.0180556031510588e-01  8.5612405293236424e-02  1.2523923202395756e-01  -1.2580951939703057e-02  -2.0032922071396511e-01  1.4573468972117343e-01  8.6067207523556032e-03  8.3677727645533689e-02  2.8375284121951505e-01  -1.3739324039427983e-01  5.2662488266250258e-02  -1.2591200759225252e-01  1.2843132523142808e-01  -1.6926355689728971e-04  2.5148701074102206e-02  6.3568636705960732e-02  -8.7104596923959318e-02  -2.5111743630188664e-02  6.2983026655190578e-03  9.8539992287552725e-02  1.7764510832108424e-03  -1.1156947559100297e-01  1.2845963778542288e-01  2.1529786240156282e-01  -1.2180316369583614e-01  9.7563335662326084e-03  3.7644513466783866e-02  7.6731906619454046e-03  -2.1119827672070215e-01  2.4582778307531333e-01  -1.1037084849813444e-01  7.9710402145060311e-02  7.2146894328551481e-02  1.8454210692542220e-02  6.3378506802018925e-02  4.4451067461743807e-02  2.3801480067006148e-01  1.2399878494131328e-01  1.0001145787342226e-01  -4.5669490844935670e-02  -8.3958147467597440e-03  -2.3272386120204314e-02  1.5581483479706881e-01  7.0714787447836588e-02  1.6996929248708750e-01  1.0509091955510470e-01  -1.1881174224291228e-02  -2.8878569498845125e-02  7.9619013813854254e-03  1.3336211484378587e-03  2.1789889867192302e-01  1.5454368492623100e-01  -1.4024159691113733e-01  -3.5082475887186895e-02  2.8662336361056192e-02  -2.8721336811703142e-02  1.0633763822749438e-01  1.9786792423039576e-01  2.2274741008397089e-01  -1.4562497945948374e-01  3.7128711536354678e-02  -1.4646563278970848e-01  2.2470109814808883e-01  2.1090264552631879e-01  -6.1627497231836852e-02  -5.5265557951519884e-02  1.1835560339415431e-01  6.1750999718256032e-02  -2.4810344398427134e-04  -4.0421133903971708e-02  9.7676769533608460e-02  -2.1400279287673185e-02  1.7412500239408071e-01  -4.1394503072282589e-02  1.7538423465176348e-01  -9.6524846324549440e-02  7.9961861655388697e-03  -5.8109809325577577e-02  -2.1351046788846185e-02  -7.3004651481756666e-02  1.6532975484194473e-01  9.4398172815522458e-02  3.0163260498190670e-03  1.7814855362599633e-01  9.9252716570285102e-02  -2.9198698319804404e-02  1.9929277681933802e-01  1.1660573487679839e-01  -6.2332751576590614e-02  -9.1419418397242172e-02  -2.4020555071469909e-04  -1.6835024522913893e-02  5.6348324830264342e-02  -5.1063838598732487e-02  6.9585544428040477e-02  1.3783998230738434e-01  -2.3980086690775070e-03  -4.9604897350221590e-02  2.1721263758871773e-01  -6.3191036132451374e-03  1.9367641427979511e-02  -1.5771382784988811e-02  2.1538206638210197e-02  4.2100260535412354e-02  3.0099030144120982e-03  -1.4197387170521841e-01