<?xml version="1.0"?>
<VTKFile type="UnstructuredGrid"  version="0.1"  >
<UnstructuredGrid>
<Piece  NumberOfPoints="4826" NumberOfCells="9274">
<Points>
<DataArray  type="Float64"  NumberOfComponents="3"  format="ascii">0.004357787137616029 0.04980973490456689 0  2.448294430073374e-13 0.05 0  -0.004357787137128233 0.04980973490460956 0  -0.004357787137605706 -0.04980973490456778 0  -2.344882876518267e-13 -0.05 0  0.004357787137138513 -0.04980973490460866 0  -0.2 -0.2 0  0.55 -0.2 0  2 -0.2 0  2 0.21 0  0.55 0.21 0  -0.2 0.21 0  0.002180969368511386 0.0499524110790822 0  -0.002180969368010819 0.04995241107910407 0  -0.002180969368502513 -0.04995241107908259 0  0.002180969368021486 -0.0499524110791036 0  -0.006814597157868607 0.04953343583455493 0  -0.009254746151924908 0.04913603233537922 0  -0.01167226819248128 0.04861849601995923 0  -0.01406125267347753 0.04798209221420657 0  -0.01641585876037609 0.04722837686348521 0  -0.01873032967049142 0.04635919272846228 0  -0.02099900674774951 0.04537666487973717 0  -0.0232163432975249 0.04428319550226104 0  -0.0253769181477669 0.04308145802223435 0  -0.02747544890327456 0.04177439057082161 0  -0.02950680486062692 0.04036518880070902 0  -0.03146601955223609 0.03885729807305569 0  -0.0333483028888871 0.03725440503391573 0  -0.03514905287103829 0.03556042860074884 0  -0.03686386684027007 0.03377951038104073 0  -0.0384885522433417 0.0319160045464898 0  -0.04001913688258778 0.02997446718746979 0  -0.04145187862754741 0.0279596451738408 0  -0.04278327456411638 0.0258764645493049 0  -0.04401006955882648 0.02373001848771415 0  -0.04512926421732728 0.02152555484076227 0  -0.04613812221762188 0.01926846330748221 0  -0.04703417700009761 0.01696426225697686 0  -0.04781523779803292 0.0146185852365256 0  -0.04847939499380464 0.01223716719811699 0  -0.04902502478771633 0.009825830477053876 0  -0.04945079316803359 0.007390470556897103 0  -0.04975565917250895 0.004937041655599784 0  -0.04993887743343513 0.002471542168028815 0  -0.05000000000000002 4.319617580295088e-13 0  -0.04993887743347691 -0.002471542167184487 0  -0.04975565917259078 -0.004937041654775128 0  -0.0494507931681559 -0.007390470556078771 0  -0.04902502478787634 -0.00982583047625548 0  -0.048479394994003 -0.01223716719733118 0  -0.04781523779827011 -0.01461858523574979 0  -0.04703417700037211 -0.01696426225621582 0  -0.04613812221792003 -0.01926846330676828 0  -0.04512926421765873 -0.0215255548400674 0  -0.0440100695591652 -0.02373001848708596 0  -0.04278327456447995 -0.0258764645487038 0  -0.04145187862791943 -0.02795964517328926 0  -0.04001913688296869 -0.02997446718696123 0  -0.03848855224374843 -0.03191600454599933 0  -0.03686386684070041 -0.03377951038057109 0  -0.03514905287149575 -0.03556042860029668 0  -0.03334830288936536 -0.03725440503348761 0  -0.03146601955271191 -0.03885729807267038 0  -0.02950680486109357 -0.0403651888003679 0  -0.02747544890375341 -0.04177439057050667 0  -0.02537691814821718 -0.0430814580219691 0  -0.02321634329799415 -0.04428319550201502 0  -0.02099900674823039 -0.04537666487951462 0  -0.01873032967097447 -0.04635919272826711 0  -0.0164158587608675 -0.0472283768633144 0  -0.01406125267397827 -0.04798209221405982 0  -0.01167226819300015 -0.04861849601983465 0  -0.00925474615244812 -0.04913603233528067 0  -0.006814597158347743 -0.04953343583448901 0  0.006814597157865879 -0.04953343583455529 0  0.009254746151927097 -0.0491360323353788 0  0.01167226819248615 -0.04861849601995805 0  0.01406125267347329 -0.04798209221420779 0  0.01641585876037412 -0.04722837686348589 0  0.01873032967049753 -0.04635919272845981 0  0.02099900674775168 -0.04537666487973616 0  0.02321634329751479 -0.04428319550226633 0  0.02537691814775486 -0.04308145802224143 0  0.02747544890326525 -0.04177439057082774 0  0.02950680486061762 -0.04036518880071581 0  0.03146601955222702 -0.03885729807306303 0  0.0333483028888813 -0.03725440503392092 0  0.03514905287103634 -0.03556042860075076 0  0.03686386684026893 -0.03377951038104196 0  0.03848855224333972 -0.03191600454649218 0  0.04001913688258468 -0.02997446718747393 0  0.04145187862754592 -0.02795964517384301 0  0.04278327456411439 -0.02587646454930818 0  0.04401006955882308 -0.02373001848772046 0  0.04512926421732501 -0.02152555484076704 0  0.04613812221761816 -0.01926846330749109 0  0.04703417700009521 -0.01696426225698355 0  0.04781523779803072 -0.01461858523653281 0  0.04847939499380377 -0.01223716719812044 0  0.04902502478771547 -0.009825830477058137 0  0.04945079316803235 -0.007390470556905473 0  0.04975565917250727 -0.004937041655616693 0  0.0499388774334346 -0.002471542168039619 0  0.05 -4.403257272689309e-13 0  0.04993887743347755 0.002471542167171875 0  0.04975565917259197 0.004937041654763091 0  0.04945079316815711 0.007390470556070629 0  0.04902502478787914 0.009825830476241509 0  0.04847939499400326 0.01223716719733013 0  0.04781523779826526 0.01461858523576567 0  0.0470341770003617 0.01696426225624468 0  0.04613812221791593 0.01926846330677807 0  0.04512926421764892 0.02152555484008794 0  0.04401006955917259 0.02373001848707224 0  0.04278327456448917 0.02587646454868855 0  0.04145187862794129 0.02795964517325684 0  0.04001913688300011 0.02997446718691929 0  0.03848855224377164 0.03191600454597132 0  0.03686386684071396 0.03377951038055631 0  0.03514905287149344 0.03556042860029895 0  0.03334830288935025 0.03725440503350112 0  0.03146601955270811 0.03885729807267346 0  0.0295068048611069 0.04036518880035816 0  0.02747544890376348 0.04177439057050004 0  0.02537691814825449 0.04308145802194713 0  0.02321634329801946 0.04428319550200175 0  0.02099900674825754 0.04537666487950205 0  0.01873032967100249 0.04635919272825579 0  0.0164158587608822 0.04722837686330929 0  0.01406125267398022 0.04798209221405924 0  0.01167226819298624 0.04861849601983799 0  0.009254746152419701 0.04913603233528602 0  0.006814597158349477 0.04953343583448876 0  -0.187519667561546 -0.2 0  -0.1748316574821168 -0.2 0  -0.1619325192212862 -0.2 0  -0.148818726846035 -0.2 0  -0.1354867192353635 -0.2 0  -0.1219328603917423 -0.2 0  -0.1081534592978099 -0.2 0  -0.09414476589796635 -0.2 0  -0.07990295884356099 -0.2 0  -0.06542416303692469 -0.2 0  -0.05070442887227664 -0.2 0  -0.03573975841838681 -0.2 0  -0.02052606515274366 -0.2 0  -0.005059208927244263 -0.2 0  0.01066502121897589 -0.2 0  0.0266509074223695 -0.2 0  0.04290280916834216 -0.2 0  0.05942514657702952 -0.2 0  0.0762224259839136 -0.2 0  0.09329921648059353 -0.2 0  0.110660175036538 -0.2 0  0.1283100227830172 -0.2 0  0.1462535753141169 -0.2 0  0.1644957199166657 -0.2 0  0.1830414159977267 -0.2 0  0.2018957233573105 -0.2 0  0.2210637763821503 -0.2 0  0.2405507887204602 -0.2 0  0.260362079066015 -0.2 0  0.2805030358280229 -0.2 0  0.3009791451426284 -0.2 0  0.3217959904068706 -0.2 0  0.3429592343744705 -0.2 0  0.3644746437000989 -0.2 0  0.3863480795092348 -0.2 0  0.4085854991020529 -0.2 0  0.4311929577241948 -0.2 0  0.4541766164908302 -0.2 0  0.4775427321916551 -0.2 0  0.5012976684604897 -0.2 0  0.5254479006641548 -0.2 0  0.5749999999999358 -0.2 0  0.5999999999998969 -0.2 0  0.6249999999998155 -0.2 0  0.6499999999998081 -0.2 0  0.6749999999997656 -0.2 0  0.6999999999997664 -0.2 0  0.7249999999997357 -0.2 0  0.7499999999996745 -0.2 0  0.7749999999995796 -0.2 0  0.7999999999995281 -0.2 0  0.8249999999994608 -0.2 0  0.8499999999994138 -0.2 0  0.8749999999993301 -0.2 0  0.8999999999992546 -0.2 0  0.9249999999991836 -0.2 0  0.9499999999990955 -0.2 0  0.9749999999990373 -0.2 0  0.9999999999989423 -0.2 0  1.024999999998847 -0.2 0  1.049999999998752 -0.2 0  1.074999999998672 -0.2 0  1.099999999998649 -0.2 0  1.124999999998554 -0.2 0  1.149999999998545 -0.2 0  1.174999999998451 -0.2 0  1.199999999998416 -0.2 0  1.224999999998348 -0.2 0  1.249999999998288 -0.2 0  1.274999999998288 -0.2 0  1.299999999998246 -0.2 0  1.324999999998369 -0.2 0  1.349999999998394 -0.2 0  1.37499999999845 -0.2 0  1.399999999998551 -0.2 0  1.424999999998531 -0.2 0  1.449999999998684 -0.2 0  1.474999999998642 -0.2 0  1.499999999998804 -0.2 0  1.524999999998773 -0.2 0  1.549999999998885 -0.2 0  1.574999999999013 -0.2 0  1.599999999999079 -0.2 0  1.624999999999119 -0.2 0  1.649999999999211 -0.2 0  1.674999999999224 -0.2 0  1.699999999999321 -0.2 0  1.724999999999342 -0.2 0  1.749999999999427 -0.2 0  1.774999999999474 -0.2 0  1.799999999999533 -0.2 0  1.824999999999605 -0.2 0  1.849999999999639 -0.2 0  1.874999999999735 -0.2 0  1.899999999999745 -0.2 0  1.924999999999841 -0.2 0  1.949999999999869 -0.2 0  1.974999999999947 -0.2 0  2 -0.1758823529412649 0  2 -0.1517647058824698 0  2 -0.12764705882371 0  2 -0.103529411764951 0  2 -0.07941176470620959 0  2 -0.05529411764745706 0  2 -0.03117647058865336 0  2 -0.007058823529918185 0  2 0.01705882352889865 0  2 0.04117647058779714 0  2 0.06529411764668486 0  2 0.08941176470558332 0  2 0.1135294117644398 0  2 0.137647058823337 0  2 0.1617647058822356 0  2 0.185882352941134 0  1.975000000000015 0.21 0  1.950000000000055 0.21 0  1.925000000000061 0.21 0  1.90000000000011 0.21 0  1.875000000000116 0.21 0  1.850000000000166 0.21 0  1.825000000000172 0.21 0  1.800000000000206 0.21 0  1.775000000000227 0.21 0  1.750000000000322 0.21 0  1.725000000000369 0.21 0  1.700000000000375 0.21 0  1.675000000000454 0.21 0  1.650000000000517 0.21 0  1.62500000000057 0.21 0  1.600000000000658 0.21 0  1.575000000000687 0.21 0  1.550000000000789 0.21 0  1.525000000000806 0.21 0  1.500000000000905 0.21 0  1.475000000001007 0.21 0  1.450000000001109 0.21 0  1.42500000000121 0.21 0  1.400000000001312 0.21 0  1.375000000001406 0.21 0  1.350000000001428 0.21 0  1.32500000000153 0.21 0  1.300000000001554 0.21 0  1.275000000001647 0.21 0  1.250000000001522 0.21 0  1.225000000001572 0.21 0  1.200000000001437 0.21 0  1.175000000001446 0.21 0  1.15000000000137 0.21 0  1.125000000001303 0.21 0  1.100000000001302 0.21 0  1.075000000001145 0.21 0  1.050000000001136 0.21 0  1.025000000000966 0.21 0  1.000000000000931 0.21 0  0.9750000000008732 0.21 0  0.9500000000008135 0.21
[...]
<PointData  Scalars="pressure"> 
<DataArray  type="Float64"  Name="pressure"  format="ascii">-7.8513497122632470e-01  -1.1051067069628462e+00  -1.0903543474882353e+00  -7.6085021605908587e-01  -6.4015785010123560e-01  -7.8833281487549578e-01  5.4320956992959357e-01  2.9641724314510826e-01  0.0000000000000000e+00  0.0000000000000000e+00  8.0762458567342585e-02  4.4093171557577987e-01  -9.6310960067945983e-01  -1.1657481198105708e+00  -6.3904183535398951e-01  -6.9548880416546255e-01  -1.1211490688888337e+00  -1.1242695073516982e+00  -1.1126804947740847e+00  -1.0901976334416166e+00  -1.0529886567453406e+00  -9.9929485763308956e-01  -9.3152488069331507e-01  -8.4995151399604929e-01  -7.5044742300634981e-01  -6.3387170625615163e-01  -5.0321084303408048e-01  -3.6396511074119425e-01  -2.1255772407761286e-01  -4.5493298002677623e-02  1.2338744539622497e-01  3.0280428589968750e-01  4.8215802828380061e-01  6.5937262720882039e-01  8.4175999127690304e-01  1.0107920540735553e+00  1.1806890492043955e+00  1.3362136490789760e+00  1.4796502132697951e+00  1.6111827836955896e+00  1.7239523687234342e+00  1.8185449976672861e+00  1.8948195498760174e+00  1.9517836240422650e+00  1.9830576958014692e+00  1.9944845270932088e+00  1.9839967510169703e+00  1.9504552846951981e+00  1.8966259448109666e+00  1.8212676362167628e+00  1.7283810662869576e+00  1.6197957560833780e+00  1.4919903353608102e+00  1.3550388211803472e+00  1.2039003283043892e+00  1.0439574245915675e+00  8.7962295075710240e-01  7.1034781886522447e-01  5.4381110513866160e-01  3.7795305652022371e-01  2.1126476699124863e-01  6.2570857397196103e-02  -8.8651603195221335e-02  -2.2221828300917149e-01  -3.4475172892355166e-01  -4.5508632956109735e-01  -5.5124997384472685e-01  -6.2809182251865703e-01  -6.9487676213192817e-01  -7.3920748157069383e-01  -7.7422158866900859e-01  -7.8940938741841349e-01  -7.9346212572449704e-01  -7.8253523371270650e-01  -7.6358920759821891e-01  -6.9861413692652330e-01  -6.5210012935697903e-01  -6.1030369456376288e-01  -5.7091258609407913e-01  -5.3659035548022027e-01  -5.0558182418176856e-01  -4.7849197280044137e-01  -4.5454845251226889e-01  -4.3379962341993628e-01  -4.1585373338103748e-01  -4.0012409131331700e-01  -3.8700482944196168e-01  -3.7622106288934237e-01  -3.6703754389836968e-01  -3.5987733515881920e-01  -3.5424750696790175e-01  -3.5052943774354123e-01  -3.4779350406598930e-01  -3.4639952599288770e-01  -3.4547463714738552e-01  -3.4570931755326528e-01  -3.4627563782306803e-01  -3.4743638830529072e-01  -3.4906449704225034e-01  -3.5142156005921577e-01  -3.5442987587881924e-01  -3.5841131636636675e-01  -3.6335928142579654e-01  -3.6942707425553495e-01  -3.7668667359048197e-01  -3.8520051344836348e-01  -3.9447905881247780e-01  -4.0499548981961603e-01  -4.1589659668821100e-01  -4.2706057259430052e-01  -4.3813903662253079e-01  -4.4906322966319506e-01  -4.5908369314598085e-01  -4.6857293637042341e-01  -4.7708825361780410e-01  -4.8450213159749056e-01  -4.9145561057589682e-01  -4.9773201458343375e-01  -5.0379265987816202e-01  -5.1015599013629376e-01  -5.1729058796337168e-01  -5.2555023004728285e-01  -5.3568663702052766e-01  -5.4776702764346163e-01  -5.6254377831185642e-01  -5.7981956079318042e-01  -6.0014344910649664e-01  -6.2341675057037238e-01  -6.4965947871751584e-01  -6.7892382917374561e-01  -7.1063456045031170e-01  -7.4408697350189856e-01  -7.7759791213039386e-01  -8.1404760915521612e-01  5.4252834532164262e-01  5.4164523775909479e-01  5.3988674005348170e-01  5.3741103588356220e-01  5.3356912261572487e-01  5.2806225313967992e-01  5.2016707292448772e-01  5.0948293856734672e-01  4.9478124953330216e-01  4.7585248574735434e-01  4.5182459717337520e-01  4.2178752732156854e-01  3.8749608905794586e-01  3.4777056070993762e-01  3.0546856651912935e-01  2.6238448348010840e-01  2.1962583826056700e-01  1.7806304557105784e-01  1.4245014347752730e-01  1.0912962703525091e-01  8.2848207949545186e-02  6.0313695842049500e-02  4.3299562333944275e-02  2.8002314716222301e-02  1.7450982044550874e-02  7.0145499488347349e-03  -2.4925155187279927e-03  -1.4280999460511125e-02  -2.5885735034362350e-02  -3.5075492282680032e-02  -3.9939799686010538e-02  -3.1217368066253776e-02  -1.0191589599457769e-02  2.8071240246485323e-02  7.7766586719484512e-02  1.3683555220331897e-01  1.9434302121022737e-01  2.4629919339627926e-01  2.8340734201005729e-01  3.0932504837077596e-01  3.1053237160853864e-01  2.6999267987842135e-01  2.3952134545249595e-01  2.0759040848314053e-01  1.7983691075758834e-01  1.5513478909130257e-01  1.2853631543856123e-01  9.8876103323874323e-02  7.2591853498014169e-02  5.3701684041556667e-02  5.5258027568590745e-02  7.7213943648306610e-02  1.1917629770143751e-01  1.7273634853594247e-01  2.2040346145370929e-01  2.4890425795795088e-01  2.6200544129623526e-01  2.5533609154305742e-01  2.3772567717888243e-01  2.0850552826211599e-01  1.7420551306433188e-01  1.3394530160344373e-01  8.5728119842571643e-02  3.8614680147476731e-02  -3.9826435454685723e-03  -2.1529841591396561e-02  -1.0047638043238166e-02  2.7844944708522647e-02  8.0951603403746353e-02  1.3455423886170850e-01  1.7878560218033615e-01  2.0475241864918728e-01  2.1572038554677933e-01  2.0894928510708621e-01  1.8467561809058797e-01  1.5031344366919153e-01  1.0653591141611948e-01  5.7093863077220953e-02  1.5622462488272993e-02  -1.5059985976895217e-02  -3.1662565476092856e-02  -2.8918102422855793e-02  -1.2655615313050976e-02  1.3546563717940080e-02  4.5632536542054861e-02  7.7706044139896985e-02  1.0586246165372852e-01  1.2553219180387318e-01  1.3547863424576095e-01  1.3410955874123456e-01  1.2280182417095210e-01  1.0405580473367282e-01  7.7678564821030582e-02  5.0451055178950620e-02  2.4779954398816695e-02  5.7531749085660165e-03  -4.6675190578476227e-03  -5.2585024247080950e-03  0.0000000000000000e+00  0.0000000000000000e+00  0.0000000000000000e+00  0.0000000000000000e+00  0.0000000000000000e+00  0.0000000000000000e+00  0.0000000000000000e+00  0.0000000000000000e+00  0.0000000000000000e+00  0.0000000000000000e+00  0.0000000000000000e+00  0.0000000000000000e+00  0.0000000000000000e+00  0.0000000000000000e+00  0.0000000000000000e+00  0.0000000000000000e+00  1.5682489339121908e-02  2.5252934209888896e-02  2.5732078612313473e-02  1.9932671128375278e-02  7.6420958142248401e-03  -8.7547625122522330e-03  -2.5112211228672032e-02  -3.9455809463597974e-02  -4.7473317707184888e-02  -4.3915420430600142e-02  -2.9956175348515499e-02  -6.8887977240400730e-03  2.6617116993612838e-02  6.3003913021400682e-02  9.7365124572764500e-02  1.2818418022490602e-01  1.4957533067921677e-01  1.6048454326441125e-01  1.5392980580696874e-01  1.3784298026094738e-01  1.0872857743810553e-01  7.1057709478945380e-02  3.2525403579976034e-02  -2.5987424385864777e-03  -2.4858626060935002e-02  -2.0875331038926821e-02  8.2790990855106581e-04  4.7366312213961217e-02  1.0030280038005633e-01  1.5575218018508113e-01  1.9989303832246655e-01  2.3301907896573085e-01  2.5254419387551014e-01  2.5163901897360863e-01  2.2732834474828256e-01  1.8662246917161673e-01  1.2684469091854561e-01  7.0433931710573411e-02  3.0458278284488303e-02  1.6255180836059660e-02  2.8140051755287391e-02  5.6020522668088081e-02  8.9543867404272434e-02  1.2394508992205751e-01  1.5629263734537380e-01  1.8558920298380013e-01  2.1087702482843884e-01  2.3097578139876965e-01  2.4500925328681336e-01  2.5294251638055709e-01  2.5044025448542206e-01  2.3581266843099438e-01  2.1190457805003790e-01  1.8213053270985194e-01  1.5350270314580017e-01  1.2680897846735192e-01  1.0348442642386393e-01  5.9439075067679384e-02  4.9836717253812578e-02  5.3878795125545248e-02  7.3793882189632995e-02  1.0911775762435266e-01  1.5249884827154445e-01  1.9447595281930741e-01  2.2328698952342180e-01  2.4029498158737572e-01  2.3979414601964108e-01  2.2640695827119287e-01  2.0287280236232630e-01  1.7425536492134419e-01  1.4107862013479919e-01  1.0648811625738409e-01  7.5503807023765343e-02  4.9143808364874079e-02  2.9104433057433599e-02  1.7360517014966541e-02  1.4287305998305270e-02  1.8084853215746363e-02  3.0925489876667565e-02  5.1631592113493954e-02  7.8021003793139587e-02  1.1096550454388561e-01  1.4765508616179904e-01  1.8624776840455576e-01  2.2539693984597794e-01  2.6322013824723817e-01  2.9840229396984369e-01  3.2915165746953301e-01  3.5638247299077092e-01  3.7847344507699870e-01  3.9605843087268339e-01  4.1029161344518678e-01  4.2053293551899917e-01  4.2837166312057012e-01  4.3358988940725307e-01  4.3708782122012446e-01  4.3915685670800453e-01  4.4027206571686489e-01  4.4077988269777585e-01  4.4184651598743485e-01  4.4565443160627111e-01  4.5339850069418225e-01  4.6598078969693740e-01  4.8426481929243903e-01  5.0837584469290353e-01  5.3823112545402085e-01  5.7329208833165635e-01  6.1271072802862925e-01  6.5438108182607946e-01  6.9675538152236061e-01  7.3694471986988930e-01  7.7207082971633101e-01  8.0045422561890600e-01  8.2038296269233357e-01  8.2764889031484323e-01  8.2510714886390579e-01  8.1198010453765002e-01  7.8972552737883295e-01  7.6172077333929222e-01  7.2872969359565365e-01  6.9473521911883152e-01  6.6106135807304800e-01  6.3043862502283932e-01  6.0371055489272529e-01  5.8199437228374418e-01  5.6550326015760954e-01  5.5403851597610521e-01  5.4736601408709395e-01  5.4384837718151080e-01  5.4309586500518758e-01  3.0117900587422658e-01  3.1421214493417116e-01  3.2702349343275483e-01  3.1647328683013820e-01  2.8487490756787870e-01  2.3051255821070052e-01  1.5579968189792243e-01  9.0673828289421457e-02  4.9665830720255377e-02  3.8562973734069209e-02  5.0163537657444107e-02  5.6789319514281379e-02  5.6920808568862953e-02  6.0069478586258745e-02  6.9485952649502095e-02  7.7097726188694593e-02  2.6100632164685247e-02  -1.4080372589384708e-02  -5.9463576606424325e-03  1.2096630130100762e-02  9.4732483264390890e-02  3.3448617910050884e-03  2.6973316463518485e-02  -1.4939206972895758e-01  2.0042291256796951e-01  -1.6272884411095379e-01  -1.5791787942600338e-01  7.9252861134500044e-02  1.5881491981695967e-01  9.2123480396286810e-03  1.6440074837430915e-01  1.2836548206837350e-01  2.3881525187431540e-02  -2.0380046379826378e-01  1.7509259511827369e-01  -1.1862881938043100e-01  2.2933324289226914e-01  1.6367077021279194e-01  -9.3847937711571433e-02  5.4303868979870121e-02  1.5802138719704792e-01  2.6938130482528594e-01  -1.7171826176800138e-02  1.1938813106638889e-01  -1.9885545458877896e-01  -1.9600833249351576e-02  2.7932406375037744e-01  -2.9199245969173883e-03  4.2387511697756411e-02  6.6447812910000167e-02  1.3653970673676627e-01  -1.0607208373464230e-02  -3.4338692178114702e-03  1.4675125402902475e-01  -4.4796066911224298e-03  -4.0705477794945582e-03  -5.9808343171983108e-02  3.4622628088378030e-02  -3.2706603825631925e-02  -2.0187958277025344e-03  5.9179240307278100e-02  4.9012556234979313e-02  -4.8162484469533057e-02  1.8335134658294706e-02  2.1265118935694127e-01  4.1015925458167506e-02  1.2364928780097671e-01  -1.5181156062726995e-02  -5.5171008565410844e-02  2.0832093467409180e-01  2.6303106472525717e-01  1.9116528315904016e-01  1.5280279127977985e-02  1.3937362180480534e-01  2.1185229037857051e-01  -1.0662309513389641e-01  -2.9349569954666872e-02  -7.8620682930897690e-02  9.4282204136223402e-02  9.2019180085239335e-02  2.6234117491732584e-01  -2.7125114732369341e-02  -1.1646455245195206e-01  1.1177445458633931e-01  1.4286157914545272e-01  -6.0662643370086984e-02  -1.2964391589378962e-01  3.8562119198626406e-02  1.0386092840575216e-01  -7.3132442926717389e-02  -1.5987663668883146e-02  1.4705750854677155e-01  9.4152443350986784e-02  1.8034044898505273e-02  3.7082382460598369e-02  2.7747240146981100e-01  2.1628138204629135e-01  1.3173743220880574e-01  4.2864269518447178e-02  1.3417795679684910e-01  1.3087473682367035e-01  -1.7929302354151662e-03  9.6217403867439322e-02  -7.5604758691127288e-02  1.7675001522526987e-01  1.0710460075269840e-02  -1.8355022013553446e-01  2.2020204740233598e-02  2.3292633855805012e-01  1.6449106636310884e-02  -6.1919792255078439e-02  -7.5791852648078833e-02  1.5125541125687991e-01  1.3198719497211051e-01  5.9865840225863443e-02  -9.7460854706585498e-02  3.2956358318242947e-03  -5.3083372827911271e-02  7.4446276042086812e-02  1.4138375748730291e-02  3.8657221609841509e-02  9.9216433333595672e-02  1.9650449396264866e-01  -1.1338306109060199e-02  -7.9530434020422987e-03  4.7127260022783904e-02  1.4433055906491715e-01  2.4574876721598866e-02  7.4160172106553429e-02  5.0673385261045423e-02  1.4750003313383164e-01  2.5168895647279577e-01  -3.6014314864513293e-02  -8.7763908845244140e-03  6.5926212518539534e-03  -1.2932600404263004e-02  -6.8382313907792572e-03  3.7602577928126053e-02  3.3343055791857125e-02  1.9361098739006935e-01  1.3593835957810413e-01  2.7487674872960027e-01  9.4208760805233924e-02  -1.0338603267629184e-01  8.6903650734634019e-02  1.2140551110162053e-01  -5.1664189122834950e-02  -5.3549249413084372e-02  1.5386329374116473e-01  8.8834292415730834e-02  -1.8340791295667533e-01  -1.0036212600336381e-01  -7.2809426238492292e-02  -7.7600850324988813e-02  2.1610589998756172e-01  4.8690418317630331e-02  4.8549938344070009e-02  2.6247897309437906e-01  -5.3378118076126080e-02  2.5286215778583021e-01  8.5113809686370390e-02  8.8044241058895245e-02  1.0017061824421127e-01  2.7256552082701585e-01  1.5674693535662607e-01  2.1931142154739244e-01  1.5878701612355808e-03  -4.1342245571483707e-02  -2.7158306332625691e-02  -7.2715360303668999e-02  -6.1653710623107316e-02  -1.0649713382156098e-01  -1.8653664362786246e-02  1.0915760101509582e-01  8.2857728294288793e-02  -1.1337726831798672e-01  3.1712471806932159e-02  -1.2531779562795581e-01  7.2128245175675815e-02  -2.7437997488929357e-02  -1.0705144352337770e-01  9.6686568779689258e-02  3.6564472725657434e-04  5.1870007681406802e-02  1.7724702742622217e-01  1.5194040265368586e-01  -5.8104101653387565e-02  -2.6791842242393316e-01  1.4421870867535536e-01  -3.2542712599148559e-02  9.1510436627461209e-02  7.6458089907364170e-03  9.4378485590614819e-02  1.0235002689054151e-01  -4.8570667384257311e-02  -2.6335477373823451e-02  1.8392946158243978e-01  2.4606677941549052e-01  9.8527092269821426e-02  1.6189811132778696e-02  -3.0851281669057411e-02  2.5699499123838454e-01  2.6501414216795197e-02  1.0878781589441398e-01  -1.3953182727950654e-02  2.3240496619863431e-02  -2.0067283247362171e-04  2.2613278351516616e-01  2.3485204985731954e-02  2.2599686996615201e-01  -5.1674645543245221e-03  1.4311426974900518e-01  -1.0569173899207798e-01  3.3288124448306458e-03  1.2404283907164075e-01  1.3663743247714376e-02  2.6306262802485253e-01  1.2248664813806803e-01  3.2255946382689832e-02  3.5042221776188575e-03  -4.3246842278604628e-03  -1.0583332529657115e-01  -3.3309158105517961e-02  -6.1334632830646919e-02  7.8617436478256586e-02  8.6550873909149173e-02  3.8377983463830929e-02  2.2950296049925167e-01  1.7922781947619371e-01  -1.3255312975655618e-03  9.9269335542829060e-02  1.8892719807878808e-01  -2.6324676075497898e-02  3.9295676888017932e-02  6.6849507992108884e-02  -8.8449227033320352e-02  -1.1001927737502307e-01  9.3759559640629916e-02  1.1486950963479858e-01  2.1925758141795298e-01  1.7429346948946578e-01  -5.2153132874787241e-02  -1.0442271998822097e-01  2.4086117689753250e-01  1.3552429401931690e-01  1.5483613383715542e-01  5.6269389754677809e-02  6.4672827113199285e-02  3.9922615351148404e-02  1.2428264574334977e-01  7.2654174506494543e-02  1.8917411400416786e-01  -4.1467606555092199e-02  1.0543252246818957e-01  2.2957590066647543e-03  2.8608958720631017e-01  2.1411140211799012e-01  3.9929714646198586e-02  4.4985554531088108e-02  1.0789031317794668e-02  2.3618945615762532e-01  -3.2818091925447337e-02  -2.8727555259603972e-02  -5.0334251780756414e-02  -3.8442424177658509e-02  1.9472971640715359e-01  -2.2349146611666020e-02  7.3933874357143173e-02  -2.4030230773936380e-02  2.5283381470605874e-02  -7.4394961897130935e-02  3.4908733559328553e-02  -4.3518124969342898e-03  -2.3137670901750972e-02  1.9945298463503641e-01  1.1355817524799769e-01  -2.3754689687745115e-03  1.9995733392561915e-02  -9.3058247328747894e-03  2.2477227733501043e-01  1.9815742989754911e-01  5.3038114793635870e-02  2.7430438982221061e-01  3.9505974016567150e-03  1.5193942433224877e-01  -7.5900346895907064e-02  -8.5105380489329766e-02  1.3602078939211609e-01  1.2620449354488067e-01  -5.3346040624054437e-02  1.4627038203597242e-01  -2.2296737150204405e-02  2.1660437176720157e-01  -6.2176585700807856e-02  -3.5456640362758821e-02  -1.8239763005831595e-02  -4.5401119675637204e-03  2.5507974617388457e-01  1.0869577562055247e-01  6.6259990106576280e-02  3.5239592455145526e-02  8.6250844331786425e-02  2.7771457792149040e-01  -2.4082921423610345e-02  1.8759520281249184e-01  1.6075469393739969e-01  -1.3919316561885864e-01  -1.8019797368371171e-02  3.8512890872707900e-02  -3.8850141865179225e-02  1.0489158940285948e-01  3.4387357694357350e-02  -1.0360324753542982e-01  1.2002497753585016e-01  1.4461225648882084e-01  -6.8445747252655426e-02  -1.3726005951829603e-01  1.4305259663215703e-01  2.0200035891591017e-01  7.9744427536356008e-02  2.4106669703960190e-01  5.3189024785353443e-02  8.3571841464031415e-03  1.3884942093685049e-01  1.8374651618727275e-01  1.3681366740889353e-01  2.7911582098397814e-01  -8.3687272486414291e-02  3.1980687685633842e-02  -5.8639812178008996e-03  -6.9816267780743856e-03  -8.7706239515002088e-02  3.9608587741423916e-02  -8.3385915118604825e-05  1.6330835223739606e-01  2.4610125428056639e-01  1.5966267694241559e-01  8.5558881096907055e-02  2.6368626254395078e-01  1.2564417309356810e-01  2.0843300004252210e-01  2.9037194604114729e-02  9.6748385280341992e-02  1.5849160492601386e-01  6.5769909099819238e-02  -2.4023796461307484e-01  6.6779489687875523e-03  -6.8583851454487227e-02  1.4167245416541530e-01  -1.1109677158678168e-02  -9.6422693034825431e-03  -5.4167451527677660e-03  1.1114129041994547e-01  -1.0781434263501770e-01  9.4448525187923772e-03  4.0198198164142163e-02  2.3289389434405625e-01  -5.5151937715472707e-02  -1.7992661074385088e-01  -6.8281634618897885e-02  1.2843602944429444e-01  3.3008372972871132e-02  1.5550471568729005e-01  3.3791232701840299e-02  -1.7624661374443600e-03  2.8569282709729478e-02  4.8116037593203174e-02  -3.5162189953169200e-02  9.5740494384662575e-02  2.2536360751654652e-01  1.8135797265543907e-01  -1.2515881606140950e-03  -7.9307242465039271e-02  4.1271072585172867e-02  -4.3993683575089607e-02  4.5016616427428942e-02  1.5789179133823386e-01  4.4038372077562019e-02  8.1991223582820572e-02  -5.5654905398827823e-02  1.0766435978088862e-01  1.8548210877532950e-01  -1.2351105571522519e-04  -1.7624667333378911e-02  2.1451068037567042e-01  1.0999012560709519e-01  -6.7694368139196673e-02  -3.2267676010689965e-02  -3.7284336660837587e-02  3.2114360544275383e-02  -1.9136532946938611e-01  -5.8791640465905119e-02  -4.1093228434632305e-02  1.6719374689639310e-01  5.8578187634005782e-02  4.9189745645808677e-02  -2.4646260155321154e-01  -1.0496143745784151e-01  -6.7248205332479313e-02  1.1461523879073490e-01  -2.9634698511564864e-02  5.1404514576910532e-02  -8.0332419562291313e-02  -8.0526408120944484e-02  1.2864009178696412e-01  2.6472819926996127e-01  -7.2147130520763087e-03  5.5415282530440835e-03  3.6837872906117529e-02  3.4107485247123370e-02  8.3537705316627062e-02  -4.4326570877302754e-02  1.2173897998104106e-01  1.3017769817545727e-01  2.2789194271114549e-01  4.3572542651139454e-02  3.1357047630479376e-02  1.5766094230805164e-01  5.9150609737636715e-02  2.2425607243875018e-01  -1.7870149615064161e-02  -1.1336009902715595e-01  -5.9823786889761719e-02  1.4201452138685476e-02  1.4198615326487979e-01  2.3774787159771901e-01  -5.4805292731986303e-02  1.6168556402723699e-01  1.2167817445603638e-01  2.1876663070072278e-01  -2.2369232729778608e-02  4.7280861179274616e-02  1.2931496114414720e-01  4.2202873442381814e-02  -3.3575632767874073e-03  1.5592332243128121e-01  1.8743517192949022e-01  -2.9552673537389839e-02  5.9676849527849782e-02  7.5504078718212034e-02  8