<?xml version="1.0"?>
<VTKFile type="UnstructuredGrid"  version="0.1"  >
<UnstructuredGrid>
<Piece  NumberOfPoints="4826" NumberOfCells="9274">
<Points>
<DataArray  type="Float64"  NumberOfComponents="3"  format="ascii">0.004357787137616029 0.04980973490456689 0  2.448294430073374e-13 0.05 0  -0.004357787137128233 0.04980973490460956 0  -0.004357787137605706 -0.04980973490456778 0  -2.344882876518267e-13 -0.05 0  0.004357787137138513 -0.04980973490460866 0  -0.2 -0.2 0  0.55 -0.2 0  2 -0.2 0  2 0.21 0  0.55 0.21 0  -0.2 0.21 0  0.002180969368511386 0.0499524110790822 0  -0.002180969368010819 0.04995241107910407 0  -0.002180969368502513 -0.04995241107908259 0  0.002180969368021486 -0.0499524110791036 0  -0.006814597157868607 0.04953343583455493 0  -0.009254746151924908 0.04913603233537922 0  -0.01167226819248128 0.04861849601995923 0  -0.01406125267347753 0.04798209221420657 0  -0.01641585876037609 0.04722837686348521 0  -0.01873032967049142 0.04635919272846228 0  -0.02099900674774951 0.04537666487973717 0  -0.0232163432975249 0.04428319550226104 0  -0.0253769181477669 0.04308145802223435 0  -0.02747544890327456 0.04177439057082161 0  -0.02950680486062692 0.04036518880070902 0  -0.03146601955223609 0.03885729807305569 0  -0.0333483028888871 0.03725440503391573 0  -0.03514905287103829 0.03556042860074884 0  -0.03686386684027007 0.03377951038104073 0  -0.0384885522433417 0.0319160045464898 0  -0.04001913688258778 0.02997446718746979 0  -0.04145187862754741 0.0279596451738408 0  -0.04278327456411638 0.0258764645493049 0  -0.04401006955882648 0.02373001848771415 0  -0.04512926421732728 0.02152555484076227 0  -0.04613812221762188 0.01926846330748221 0  -0.04703417700009761 0.01696426225697686 0  -0.04781523779803292 0.0146185852365256 0  -0.04847939499380464 0.01223716719811699 0  -0.04902502478771633 0.009825830477053876 0  -0.04945079316803359 0.007390470556897103 0  -0.04975565917250895 0.004937041655599784 0  -0.04993887743343513 0.002471542168028815 0  -0.05000000000000002 4.319617580295088e-13 0  -0.04993887743347691 -0.002471542167184487 0  -0.04975565917259078 -0.004937041654775128 0  -0.0494507931681559 -0.007390470556078771 0  -0.04902502478787634 -0.00982583047625548 0  -0.048479394994003 -0.01223716719733118 0  -0.04781523779827011 -0.01461858523574979 0  -0.04703417700037211 -0.01696426225621582 0  -0.04613812221792003 -0.01926846330676828 0  -0.04512926421765873 -0.0215255548400674 0  -0.0440100695591652 -0.02373001848708596 0  -0.04278327456447995 -0.0258764645487038 0  -0.04145187862791943 -0.02795964517328926 0  -0.04001913688296869 -0.02997446718696123 0  -0.03848855224374843 -0.03191600454599933 0  -0.03686386684070041 -0.03377951038057109 0  -0.03514905287149575 -0.03556042860029668 0  -0.03334830288936536 -0.03725440503348761 0  -0.03146601955271191 -0.03885729807267038 0  -0.02950680486109357 -0.0403651888003679 0  -0.02747544890375341 -0.04177439057050667 0  -0.02537691814821718 -0.0430814580219691 0  -0.02321634329799415 -0.04428319550201502 0  -0.02099900674823039 -0.04537666487951462 0  -0.01873032967097447 -0.04635919272826711 0  -0.0164158587608675 -0.0472283768633144 0  -0.01406125267397827 -0.04798209221405982 0  -0.01167226819300015 -0.04861849601983465 0  -0.00925474615244812 -0.04913603233528067 0  -0.006814597158347743 -0.04953343583448901 0  0.006814597157865879 -0.04953343583455529 0  0.009254746151927097 -0.0491360323353788 0  0.01167226819248615 -0.04861849601995805 0  0.01406125267347329 -0.04798209221420779 0  0.01641585876037412 -0.04722837686348589 0  0.01873032967049753 -0.04635919272845981 0  0.02099900674775168 -0.04537666487973616 0  0.02321634329751479 -0.04428319550226633 0  0.02537691814775486 -0.04308145802224143 0  0.02747544890326525 -0.04177439057082774 0  0.02950680486061762 -0.04036518880071581 0  0.03146601955222702 -0.03885729807306303 0  0.0333483028888813 -0.03725440503392092 0  0.03514905287103634 -0.03556042860075076 0  0.03686386684026893 -0.03377951038104196 0  0.03848855224333972 -0.03191600454649218 0  0.04001913688258468 -0.02997446718747393 0  0.04145187862754592 -0.02795964517384301 0  0.04278327456411439 -0.02587646454930818 0  0.04401006955882308 -0.02373001848772046 0  0.04512926421732501 -0.02152555484076704 0  0.04613812221761816 -0.01926846330749109 0  0.04703417700009521 -0.01696426225698355 0  0.04781523779803072 -0.01461858523653281 0  0.04847939499380377 -0.01223716719812044 0  0.04902502478771547 -0.009825830477058137 0  0.04945079316803235 -0.007390470556905473 0  0.04975565917250727 -0.004937041655616693 0  0.0499388774334346 -0.002471542168039619 0  0.05 -4.403257272689309e-13 0  0.04993887743347755 0.002471542167171875 0  0.04975565917259197 0.004937041654763091 0  0.04945079316815711 0.007390470556070629 0  0.04902502478787914 0.009825830476241509 0  0.04847939499400326 0.01223716719733013 0  0.04781523779826526 0.01461858523576567 0  0.0470341770003617 0.01696426225624468 0  0.04613812221791593 0.01926846330677807 0  0.04512926421764892 0.02152555484008794 0  0.04401006955917259 0.02373001848707224 0  0.04278327456448917 0.02587646454868855 0  0.04145187862794129 0.02795964517325684 0  0.04001913688300011 0.02997446718691929 0  0.03848855224377164 0.03191600454597132 0  0.03686386684071396 0.03377951038055631 0  0.03514905287149344 0.03556042860029895 0  0.03334830288935025 0.03725440503350112 0  0.03146601955270811 0.03885729807267346 0  0.0295068048611069 0.04036518880035816 0  0.02747544890376348 0.04177439057050004 0  0.02537691814825449 0.04308145802194713 0  0.02321634329801946 0.04428319550200175 0  0.02099900674825754 0.04537666487950205 0  0.01873032967100249 0.04635919272825579 0  0.0164158587608822 0.04722837686330929 0  0.01406125267398022 0.04798209221405924 0  0.01167226819298624 0.04861849601983799 0  0.009254746152419701 0.04913603233528602 0  0.006814597158349477 0.04953343583448876 0  -0.187519667561546 -0.2 0  -0.1748316574821168 -0.2 0  -0.1619325192212862 -0.2 0  -0.148818726846035 -0.2 0  -0.1354867192353635 -0.2 0  -0.1219328603917423 -0.2 0  -0.1081534592978099 -0.2 0  -0.09414476589796635 -0.2 0  -0.07990295884356099 -0.2 0  -0.06542416303692469 -0.2 0  -0.05070442887227664 -0.2 0  -0.03573975841838681 -0.2 0  -0.02052606515274366 -0.2 0  -0.005059208927244263 -0.2 0  0.01066502121897589 -0.2 0  0.0266509074223695 -0.2 0  0.04290280916834216 -0.2 0  0.05942514657702952 -0.2 0  0.0762224259839136 -0.2 0  0.09329921648059353 -0.2 0  0.110660175036538 -0.2 0  0.1283100227830172 -0.2 0  0.1462535753141169 -0.2 0  0.1644957199166657 -0.2 0  0.1830414159977267 -0.2 0  0.2018957233573105 -0.2 0  0.2210637763821503 -0.2 0  0.2405507887204602 -0.2 0  0.260362079066015 -0.2 0  0.2805030358280229 -0.2 0  0.3009791451426284 -0.2 0  0.3217959904068706 -0.2 0  0.3429592343744705 -0.2 0  0.3644746437000989 -0.2 0  0.3863480795092348 -0.2 0  0.4085854991020529 -0.2 0  0.4311929577241948 -0.2 0  0.4541766164908302 -0.2 0  0.4775427321916551 -0.2 0  0.5012976684604897 -0.2 0  0.5254479006641548 -0.2 0  0.5749999999999358 -0.2 0  0.5999999999998969 -0.2 0  0.6249999999998155 -0.2 0  0.6499999999998081 -0.2 0  0.6749999999997656 -0.2 0  0.6999999999997664 -0.2 0  0.7249999999997357 -0.2 0  0.7499999999996745 -0.2 0  0.7749999999995796 -0.2 0  0.7999999999995281 -0.2 0  0.8249999999994608 -0.2 0  0.8499999999994138 -0.2 0  0.8749999999993301 -0.2 0  0.8999999999992546 -0.2 0  0.9249999999991836 -0.2 0  0.9499999999990955 -0.2 0  0.9749999999990373 -0.2 0  0.9999999999989423 -0.2 0  1.024999999998847 -0.2 0  1.049999999998752 -0.2 0  1.074999999998672 -0.2 0  1.099999999998649 -0.2 0  1.124999999998554 -0.2 0  1.149999999998545 -0.2 0  1.174999999998451 -0.2 0  1.199999999998416 -0.2 0  1.224999999998348 -0.2 0  1.249999999998288 -0.2 0  1.274999999998288 -0.2 0  1.299999999998246 -0.2 0  1.324999999998369 -0.2 0  1.349999999998394 -0.2 0  1.37499999999845 -0.2 0  1.399999999998551 -0.2 0  1.424999999998531 -0.2 0  1.449999999998684 -0.2 0  1.474999999998642 -0.2 0  1.499999999998804 -0.2 0  1.524999999998773 -0.2 0  1.549999999998885 -0.2 0  1.574999999999013 -0.2 0  1.599999999999079 -0.2 0  1.624999999999119 -0.2 0  1.649999999999211 -0.2 0  1.674999999999224 -0.2 0  1.699999999999321 -0.2 0  1.724999999999342 -0.2 0  1.749999999999427 -0.2 0  1.774999999999474 -0.2 0  1.799999999999533 -0.2 0  1.824999999999605 -0.2 0  1.849999999999639 -0.2 0  1.874999999999735 -0.2 0  1.899999999999745 -0.2 0  1.924999999999841 -0.2 0  1.949999999999869 -0.2 0  1.974999999999947 -0.2 0  2 -0.1758823529412649 0  2 -0.1517647058824698 0  2 -0.12764705882371 0  2 -0.103529411764951 0  2 -0.07941176470620959 0  2 -0.05529411764745706 0  2 -0.03117647058865336 0  2 -0.007058823529918185 0  2 0.01705882352889865 0  2 0.04117647058779714 0  2 0.06529411764668486 0  2 0.08941176470558332 0  2 0.1135294117644398 0  2 0.137647058823337 0  2 0.1617647058822356 0  2 0.185882352941134 0  1.975000000000015 0.21 0  1.950000000000055 0.21 0  1.925000000000061 0.21 0  1.90000000000011 0.21 0  1.875000000000116 0.21 0  1.850000000000166 0.21 0  1.825000000000172 0.21 0  1.800000000000206 0.21 0  1.775000000000227 0.21 0  1.750000000000322 0.21 0  1.725000000000369 0.21 0  1.700000000000375 0.21 0  1.675000000000454 0.21 0  1.650000000000517 0.21 0  1.62500000000057 0.21 0  1.600000000000658 0.21 0  1.575000000000687 0.21 0  1.550000000000789 0.21 0  1.525000000000806 0.21 0  1.500000000000905 0.21 0  1.475000000001007 0.21 0  1.450000000001109 0.21 0  1.42500000000121 0.21 0  1.400000000001312 0.21 0  1.375000000001406 0.21 0  1.350000000001428 0.21 0  1.32500000000153 0.21 0  1.300000000001554 0.21 0  1.275000000001647 0.21 0  1.250000000001522 0.21 0  1.225000000001572 0.21 0  1.200000000001437 0.21 0  1.175000000001446 0.21 0  1.15000000000137 0.21 0  1.125000000001303 0.21 0  1.100000000001302 0.21 0  1.075000000001145 0.21 0  1.050000000001136 0.21 0  1.025000000000966 0.21 0  1.000000000000931 0.21 0  0.9750000000008732 0.21 0  0.9500000000008135 0.21
[...]
<PointData  Scalars="pressure"> 
<DataArray  type="Float64"  Name="pressure"  format="ascii">-7.9372399671139982e-01  -6.7472702435995635e-01  -7.6726615338296533e-01  -1.0986942990119120e+00  -1.0840713542192648e+00  -8.4166184940396893e-01  4.4926567912365500e-01  8.9341514889846846e-02  0.0000000000000000e+00  0.0000000000000000e+00  2.4675185921848350e-01  5.1304287828192230e-01  -7.1861912000258343e-01  -6.7667715142137386e-01  -1.1474600194357134e+00  -9.7739359042777296e-01  -7.7009453416450413e-01  -7.8578994473587471e-01  -7.8887298730334565e-01  -7.7994642183326324e-01  -7.5763188900559841e-01  -7.1835910905357314e-01  -6.6482933459584437e-01  -5.9738408304986934e-01  -5.1188302578356004e-01  -4.0918581591655379e-01  -2.9229425999798114e-01  -1.6558039664206040e-01  -2.6868623348099609e-02  1.2735492431111453e-01  2.8439363850829458e-01  4.5152867727582507e-01  6.1932538591625830e-01  7.8507018538245499e-01  9.5573320907244874e-01  1.1136584983468079e+00  1.2718613951826376e+00  1.4160217782649751e+00  1.5480248044556821e+00  1.6679557758776584e+00  1.7691256837249461e+00  1.8521723929878402e+00  1.9165934744651993e+00  1.9617185614941441e+00  1.9812398402173073e+00  1.9807997599217682e+00  1.9584905441301375e+00  1.9131164547528676e+00  1.8475563921730640e+00  1.7604295738633440e+00  1.6559375735861945e+00  1.5359774995482751e+00  1.3966556513994972e+00  1.2484603361215549e+00  1.0859547818609361e+00  9.1460410694416983e-01  7.3893541638098748e-01  5.5826278393299711e-01  3.8036377153894746e-01  2.0306660322941764e-01  2.4117056701340567e-02  -1.3560221239804274e-01  -2.9993533977645015e-01  -4.4566022074137879e-01  -5.8102243735805226e-01  -7.0458531904484856e-01  -8.1449215022814392e-01  -9.0498473693739478e-01  -9.8615960873081054e-01  -1.0444310884499239e+00  -1.0936944377857747e+00  -1.1232934587442576e+00  -1.1405967521078499e+00  -1.1441810517241273e+00  -1.1362594240885755e+00  -8.3637871733316171e-01  -8.0108413194317885e-01  -7.6364905957359042e-01  -7.2641757794626838e-01  -6.9160931402781833e-01  -6.5944406889234564e-01  -6.3029448986632586e-01  -6.0421104635094169e-01  -5.8107812916610846e-01  -5.6104557648211317e-01  -5.4351551343254512e-01  -5.2915752479017930e-01  -5.1754223606530991e-01  -5.0800722295944123e-01  -5.0060536658839805e-01  -4.9467855132665256e-01  -4.9023010365416475e-01  -4.8613628038895146e-01  -4.8235927553369562e-01  -4.7846266112861047e-01  -4.7363056606772946e-01  -4.6833920880813834e-01  -4.6191646014155635e-01  -4.5444904824153975e-01  -4.4648300154494996e-01  -4.3727273261727961e-01  -4.2800529678047528e-01  -4.1826319268484663e-01  -4.0877030088515715e-01  -3.9981151788416813e-01  -3.9150806853016029e-01  -3.8430707405930176e-01  -3.7848465258638980e-01  -3.7357218919670498e-01  -3.7028753676623238e-01  -3.6810486565528833e-01  -3.6706500863581976e-01  -3.6701040075933994e-01  -3.6802716447712491e-01  -3.6978166802518758e-01  -3.7234397536411962e-01  -3.7576107308716949e-01  -3.7999233885770334e-01  -3.8497659736332779e-01  -3.9089347949202835e-01  -3.9792039535043972e-01  -4.0603896297499381e-01  -4.1570612885481301e-01  -4.2676813157959442e-01  -4.4009601603594206e-01  -4.5539777998291242e-01  -4.7368694614664414e-01  -4.9477155058982758e-01  -5.1933714940637321e-01  -5.4731586115724273e-01  -5.7902779696660389e-01  -6.1422609204480016e-01  -6.5411094112715429e-01  -6.9457672384650126e-01  4.4864047146931624e-01  4.4778187917206375e-01  4.4577709633181650e-01  4.4274776722373543e-01  4.3780314482273613e-01  4.3052478585168447e-01  4.1997015650939296e-01  4.0572542860519795e-01  3.8649429272438168e-01  3.6219767705953787e-01  3.3225451935331390e-01  2.9578100711433342e-01  2.5538426440216788e-01  2.0970836087721106e-01  1.6246854687823034e-01  1.1575713336386821e-01  7.0832704618995768e-02  2.8649840264205483e-02  -5.7946618278256366e-03  -3.5635551732721947e-02  -5.6150843693837292e-02  -6.9784525339307943e-02  -7.4391914448909691e-02  -7.3681928860816939e-02  -6.2972176740217350e-02  -4.5030036918532870e-02  -1.8957482028369277e-02  1.6702915652108311e-02  5.9223111398635647e-02  1.0780095765440753e-01  1.6218302680120644e-01  2.1384230359530582e-01  2.6093105641895975e-01  2.9561226537946600e-01  3.1391927335205239e-01  3.1124795589469761e-01  2.8607061488385366e-01  2.4340173067229401e-01  1.9056309710617125e-01  1.3888345320996864e-01  1.0698558694238176e-01  8.3439398705120238e-02  8.2446771448345196e-02  8.1663971671279159e-02  8.2283216311975785e-02  9.3113508412285523e-02  1.1856631836497583e-01  1.5673759087557790e-01  1.9547227776762965e-01  2.2809117311247706e-01  2.4558841592593569e-01  2.5066356844664789e-01  2.4251449222449553e-01  2.2347782995502039e-01  1.9864970951880206e-01  1.6821440645426261e-01  1.3253020575186802e-01  9.3007951479568793e-02  5.2861371858946821e-02  1.5180496686593062e-02  -8.7594218441248255e-03  -5.3523253558897359e-03  2.7531411967004111e-02  8.2130049327002547e-02  1.4278647113666701e-01  1.8972770997607913e-01  2.2350865848546037e-01  2.3554693059347193e-01  2.2794928324765626e-01  2.0023871714639593e-01  1.5961056090341963e-01  1.1048880045673849e-01  5.5521607555200622e-02  6.4589643221908263e-03  -2.7716643052662155e-02  -4.5929473244334065e-02  -3.7930748238833231e-02  -1.4482449658595579e-02  1.6106726400123696e-02  5.3943531369014967e-02  8.8303568329545903e-02  1.1409327586820830e-01  1.3045064445111917e-01  1.3340301410994079e-01  1.2378474958347389e-01  1.0173893709470115e-01  7.2027794346371937e-02  3.6256535578477911e-02  -1.7969826648441982e-04  -3.3917746146149154e-02  -6.0021179139411858e-02  -7.3968174793874727e-02  -7.5685687461753734e-02  -6.7358281167713419e-02  -5.1808210770714340e-02  -3.3942117143961337e-02  -1.6972034411893828e-02  -5.7065794605724342e-03  0.0000000000000000e+00  0.0000000000000000e+00  0.0000000000000000e+00  0.0000000000000000e+00  0.0000000000000000e+00  0.0000000000000000e+00  0.0000000000000000e+00  0.0000000000000000e+00  0.0000000000000000e+00  0.0000000000000000e+00  0.0000000000000000e+00  0.0000000000000000e+00  0.0000000000000000e+00  0.0000000000000000e+00  0.0000000000000000e+00  0.0000000000000000e+00  1.7086612285797460e-02  3.7459726958787826e-02  6.1828035474553171e-02  8.5089380299138026e-02  1.0254924115932126e-01  1.1375283253785715e-01  1.1609004373159021e-01  1.0815092249325201e-01  9.2062470368856661e-02  6.9994493596252608e-02  4.1633924578654065e-02  1.5243420909938630e-02  -9.3209528589602367e-03  -2.6604631699286445e-02  -3.1491175041381277e-02  -2.3775029250403854e-02  -1.3413777931354706e-03  3.0828020580188943e-02  7.3226077107982346e-02  1.1360531596651770e-01  1.4865462237750607e-01  1.7438721636994500e-01  1.8503243625859198e-01  1.7855618758095679e-01  1.5938945040504049e-01  1.2235631150239729e-01  7.5856558620305242e-02  2.6872370877014551e-02  -1.3967536288683264e-02  -3.3176705083853321e-02  -2.4237433950048168e-02  1.0810301988605105e-02  5.8334818742040689e-02  1.0656442464146626e-01  1.5347186196655901e-01  1.9037321774797689e-01  2.2337898714625981e-01  2.4497234868486115e-01  2.5112426037234670e-01  2.3799443106723028e-01  2.0331338077516950e-01  1.5054934399216352e-01  9.6553809364448531e-02  5.2807664671150369e-02  3.6626239836559181e-02  3.6455050595040256e-02  5.7870933068098256e-02  8.5211877639274236e-02  1.1502754997198127e-01  1.4379930219532644e-01  1.6850654912263410e-01  1.9238224173960006e-01  2.1578905140609503e-01  2.3851347468336706e-01  2.5622633739332051e-01  2.6683618840598283e-01  2.6480671849720622e-01  2.1620121062942635e-01  1.7696846180320405e-01  1.2705013622795111e-01  7.8424394644288881e-02  3.2724138745946062e-02  -4.9831544725900375e-04  -2.4406851702646868e-02  -2.7553154467760643e-02  -1.9491526012079381e-02  -8.3129093780497641e-04  2.0787398212158140e-02  4.2222924044200583e-02  5.7450216752101942e-02  6.8854880740120999e-02  7.7108724559071071e-02  8.2607578032731568e-02  8.7391535522890598e-02  9.2816725654246174e-02  1.0068702658676298e-01  1.1189165686889173e-01  1.2650269174472295e-01  1.4631578141048779e-01  1.7096770086501861e-01  1.9924898615001749e-01  2.3175888381578721e-01  2.6640453594618679e-01  3.0161933875121089e-01  3.3649761596045608e-01  3.6900069869631713e-01  3.9864527991408749e-01  4.2389886520446929e-01  4.4576586789117739e-01  4.6323492701662827e-01  4.7694630038371461e-01  4.8798069851444598e-01  4.9595552930270537e-01  5.0214150783462919e-01  5.0638878633703244e-01  5.0935691689223483e-01  5.1122989539795927e-01  5.1233222633255171e-01  5.1291963536348262e-01  5.1385242260738817e-01  5.1716070303703410e-01  5.2391531022497428e-01  5.3492439351239818e-01  5.5093467991176370e-01  5.7203055808949943e-01  5.9802333411107811e-01  6.2833815812705007e-01  6.6204501045658903e-01  6.9703092993283378e-01  7.3178205258902385e-01  7.6343296835515961e-01  7.8921035393293337e-01  8.0763520658050225e-01  8.1714222148264559e-01  8.1376171359794602e-01  8.0065315850837138e-01  7.7725831106458776e-01  7.4527134291112984e-01  7.0820859867662955e-01  6.6707766158773640e-01  6.2583892023842758e-01  5.8597603329369907e-01  5.5012409101278825e-01  5.1914757507207621e-01  4.9407048200593512e-01  4.7507320618208171e-01  4.6184020434240819e-01  4.5409970928792798e-01  4.5000775129640253e-01  4.4911925099896016e-01  8.4712355649530516e-02  7.1634297349185805e-02  5.6530583306051728e-02  5.2582373727505571e-02  5.4088037511821549e-02  5.3624525667191225e-02  4.8305525998827266e-02  5.1426190944672961e-02  7.5217521960999192e-02  1.2487547012086056e-01  1.8228755786931394e-01  2.2658630731770471e-01  2.4232091829560895e-01  2.5125853260259767e-01  2.5392474832923612e-01  2.4783655391198714e-01  7.4188406676503980e-03  -4.6616588747121268e-02  -3.4507643173557888e-02  -1.7364562649736640e-02  5.5724364389762804e-02  -5.5316784853533592e-02  -7.7169897210816546e-02  8.0492885678399198e-02  -3.7985021412772081e-02  2.0287320105468934e-01  2.0839974723194482e-01  7.8529110221316548e-02  -8.1772450460974172e-02  1.1160758595889861e-01  2.1181210535658040e-01  -1.3256829407228257e-01  -1.1406765219167921e-01  2.4082622278309038e-01  -1.3178497401787198e-01  1.5125338606581396e-01  -1.2009733192015374e-02  4.2835126851824709e-02  1.4569061997754896e-02  -1.1108516546296258e-01  -8.6334715484399138e-02  1.2090449612719040e-01  -1.6836156277188909e-02  1.9036787495945828e-01  2.4412261556427373e-03  -2.4106943189832808e-02  1.7379768173860824e-01  -4.9379531455762730e-02  2.0674045085753168e-01  7.7052774187468193e-03  -8.2669528211030796e-02  -1.5754656376350443e-02  -1.7956140019219489e-02  1.9495823723981723e-01  -2.3887565415971258e-03  -7.6285388025748111e-03  1.3016833981259826e-01  -1.4625333939130057e-02  2.8434147155203052e-02  1.6042565432783365e-01  1.9207073426442903e-01  8.5640244539081437e-02  7.8335158324709886e-02  -9.7508158926361582e-02  6.7538477942538769e-02  6.1476122680806100e-02  2.7934344112413351e-01  -3.5674134942159645e-02  4.1273492800397778e-02  -7.9942612324046258e-02  7.3031945017691918e-02  -9.1303275961260519e-02  -2.8165973920858234e-02  4.1722754395743640e-02  4.2518139017961205e-02  2.2773276233062836e-01  2.7794162973754738e-01  -6.2559701087130243e-02  -1.5005780676433420e-01  -1.0139343932559951e-01  1.8563675412062491e-01  1.1392581844840784e-01  2.7074844537653710e-02  -4.6620809868195466e-02  3.2884984590721845e-02  1.0339600570434727e-01  2.1334742045260369e-01  3.1980810679276384e-02  2.7747927849550189e-02  -3.3436195178981720e-02  1.2313305348915947e-01  -7.9270416060151144e-02  -3.8905382278165930e-02  -1.2337704839274004e-01  -9.7766460906416330e-02  9.6634395391887104e-02  6.5474910118844348e-02  2.4103662878364909e-01  -1.7080452819031303e-01  8.3764989661944955e-02  6.3878739735555259e-02  1.2346562874775754e-01  -1.4856031442630743e-01  1.3524392900863486e-01  8.1472799697708629e-03  2.6603170088201666e-01  1.8007319940960723e-01  1.5402895521942334e-01  6.9509453434852209e-02  -7.9343219120787761e-02  6.5509237160755129e-02  1.1926248957738047e-02  -4.7495250628724530e-03  -8.6445404266382031e-02  3.6150335139252469e-02  9.1931483958284394e-03  2.2253815851201095e-01  1.2865145172545617e-01  -8.6912712507734385e-02  2.5711006519077018e-01  -4.8961105237483801e-03  -1.4879300989027125e-01  1.0827368910663447e-01  1.6973116422167703e-02  1.9934371931579331e-01  -3.0512923673911047e-01  1.2257743711085829e-01  2.0960222795670534e-02  1.1596256662196756e-01  -4.0569559206053769e-02  -3.4227295067293620e-02  1.1356805928242961e-01  -5.5209154293886747e-04  6.9241156782546154e-03  3.0289534548434815e-02  -8.2637002182828576e-03  1.0575218610618503e-01  8.3854580437915417e-03  -6.7349939463249325e-02  2.3312121650221859e-01  2.2501186767237474e-01  1.5122543357693202e-01  -2.2547380568391237e-01  7.8087349964219857e-02  -3.3969365707161636e-02  -4.1679208437988453e-02  4.2669237951961071e-02  -1.1986670410381066e-02  1.0557087458956099e-01  -4.5544499586201076e-02  1.2837956259596006e-01  2.3546880565476086e-01  8.9953616771085890e-02  1.5023872580690753e-01  8.3011443244042880e-04  2.8513531700185862e-02  2.7822823387018519e-01  6.1379179004853429e-02  -1.1129093656050157e-02  6.4199778404430358e-03  1.3641342671210269e-01  1.6818692887172573e-01  -1.4502183515718131e-01  1.7244109062167876e-01  -5.7743649895992278e-03  5.3135917476688770e-02  2.0870262389136512e-01  5.9483467997625016e-02  -8.6710761440991435e-02  1.0816014731333827e-01  -3.2886437791417956e-02  5.0373467196797375e-02  -7.7537809613654057e-02  -6.9731288771564828e-02  -1.0727874313502481e-02  2.6082644700516794e-01  -7.1404053716831881e-02  9.0947258823000629e-02  1.0761440911644524e-01  -4.3761280263420410e-02  -4.4261953017998602e-03  3.7087452980512164e-03  -2.5645620860522175e-02  1.9073624425137724e-02  7.1739396117595611e-02  -1.6966199440185223e-01  -4.1361801533675781e-02  1.4057744622396440e-01  -6.1501082112985071e-02  1.2352427371694132e-01  -1.1685419410057246e-01  -5.2019489243448666e-02  -7.2494753549586413e-02  -1.3079111507782116e-02  7.1937808518083929e-02  2.2160292309257097e-02  1.6833914785274298e-01  9.2983882193252529e-02  -2.0104242572473013e-01  -1.1896945420068721e-01  1.4178895412054029e-01  8.0203515242876361e-02  2.6846400877098692e-02  2.7885239007924384e-01  -1.0046216235330491e-02  2.3526679566152880e-02  1.4530169079841382e-01  1.2979961839650209e-01  8.7360896622792311e-02  2.0333879087385190e-01  5.7937215349357266e-02  -3.1625885596354458e-02  1.3194628116529072e-01  -7.1132531643851651e-04  2.1828267941522528e-01  5.2108108320049085e-02  1.5867682716935558e-01  -7.9563703916501333e-02  -2.3881643398624486e-01  6.5362660846830095e-02  1.4268855039456302e-01  7.4547466044597888e-02  1.9677768019371636e-01  1.0644579911703594e-01  1.7904762273247979e-01  7.9580489629699960e-03  -6.5833989032692969e-02  1.6559093213869913e-01  -4.1081297313050713e-02  -6.6633857962207999e-02  -1.6436024142189071e-01  2.0790735897561641e-02  -6.1014650089756664e-02  7.7456616951297547e-02  2.5642112946691686e-01  2.6190156622568134e-01  2.7762900530040591e-01  1.0208863828208063e-01  3.4285520565938407e-02  -2.9640111728808892e-03  -4.0665440860872017e-02  1.0146512091597570e-01  9.8635493299979185e-02  -2.3930549569505060e-02  1.0949829354781671e-03  2.3406567557486796e-02  -5.4222933314086209e-02  -7.8339430676365909e-02  -2.9391770287100567e-02  1.9306340981765931e-02  2.5502840043264879e-01  2.7200344400328206e-02  8.1347568862083178e-02  -1.4465800914710614e-01  2.5735857799227324e-01  1.1980739422167087e-01  2.2953685626238077e-01  -9.3076700520285757e-02  2.3021127830839822e-01  -9.1878814772535011e-02  2.2151360180885017e-02  2.7544132012964693e-03  3.6805753834728186e-02  1.5202454686954268e-02  -7.1650525090613260e-02  -1.1753493582741527e-01  2.3727142469612067e-01  1.3510741469966639e-01  -5.8689669199840679e-02  1.0203697535857623e-01  3.4873548806805987e-02  5.4985144487908477e-02  2.1466194821218663e-02  1.7197923835360437e-01  -6.6283479710498375e-02  6.8273391043832884e-02  2.3606654411147236e-02  -1.9691366339529936e-03  2.6821188339571789e-01  7.1504588621682075e-02  1.3654031849792558e-01  -1.5268883164763217e-01  1.2690366414699122e-02  -3.9803738301424432e-02  2.6061048280106275e-01  1.5313520483374787e-01  1.8233454252005324e-01  -1.0872263382222003e-01  -8.7816069748808290e-02  2.4013874271066760e-02  1.1412132894466082e-01  3.5047927189602493e-02  1.0619352279819534e-01  5.5962856664626186e-02  1.6730436788626241e-01  9.0003374030813668e-02  -1.3159400789430942e-01  7.6295027516927238e-02  4.6336725781509734e-02  -9.4375054318675447e-02  2.2075839634737242e-02  2.8484467723855617e-01  6.3885287868790552e-02  -5.1198621144639125e-03  -5.0956537804449850e-02  6.4447253737760682e-02  1.0731482246641579e-01  -2.2954828781201732e-02  -2.4593662264310829e-02  1.8875839881323447e-01  5.7635518767286892e-03  -1.1891559672297196e-01  1.3557983505025303e-01  2.1599686431043974e-01  4.3736597406169350e-02  -4.3061779108768483e-03  -2.5566175956211181e-03  -8.8899430416798014e-02  7.7622738033913799e-02  -8.5545727825085266e-02  1.9455137300508851e-01  2.5339800857416517e-01  5.0385964968141864e-02  1.0769775181892267e-02  -1.2446956462484529e-01  -9.3955986165128763e-02  1.4856959082396362e-01  9.1472144626370641e-02  2.5069581460454404e-01  -1.1505878227127884e-01  -5.9373467991646355e-02  1.3164491779665649e-01  9.5764762847448462e-03  2.4010909850177051e-01  -2.2773367785033825e-02  9.0121895993460432e-02  -2.4776648212338596e-02  -2.4078887412095723e-01  8.9818491131365683e-02  3.9756442618309656e-02  7.9992486242999553e-02  2.4679562556015427e-01  -1.7648549585911383e-01  5.1750780128830770e-03  -4.9493909434696469e-02  1.1116814194987941e-01  8.1218823875411402e-03  1.2425157752626290e-01  9.6479196145416612e-02  -3.8844987198377194e-02  -2.9302180508303681e-02  1.7384746494781145e-01  1.9943946841035488e-02  8.6334184329416822e-02  -5.5570265944932994e-02  1.3042116197749382e-01  1.6518477396118930e-01  -4.0206914798310053e-02  1.0486542060013858e-01  5.3525420509548741e-02  -9.3695984240398045e-02  -1.2201859780359946e-01  2.3160101308912925e-01  -1.1685733350724825e-01  1.1331317871537837e-01  6.1042853912125189e-02  -3.8481092632779173e-04  1.3798429717648372e-01  1.2973593686934737e-01  2.1170193448681390e-01  4.1341763099776961e-02  1.3113274086750959e-01  7.0421895883240340e-02  -2.4566856314995306e-02  5.5215106221180504e-02  1.4095046759728672e-01  6.7318316590372481e-03  1.8997444531236563e-01  9.5449826668803597e-02  7.7726182900922813e-02  2.0993967969240124e-02  -4.1382268983936314e-02  3.5985974424058607e-04  2.7050691671884919e-01  8.5587559062311316e-02  -2.2483158660004190e-01  1.2859039229971812e-02  1.1858194999853079e-01  1.4692292811908363e-02  1.9040297836187875e-01  1.8318741923057785e-01  2.0180721188607609e-01  -6.8325280932191729e-02  -4.2756608261472678e-02  -1.7218061511518334e-01  2.4982829334325440e-01  2.2508774066247045e-01  7.0540883927379377e-03  -1.3094511841015111e-02  7.1814158393225885e-02  1.2359327245604999e-01  -2.9588302167263634e-02  4.8740715711840917e-02  1.5413465739110616e-01  -1.4187469755057275e-01  1.3969863059928384e-01  -5.3855371656855257e-02  2.0913816267529672e-01  -9.6491045002353157e-02  -4.5792057216729846e-03  -3.6525986343387912e-02  -1.5115488655899775e-02  -1.7391220885713257e-01  1.2993549392309980e-01  4.1908141871121692e-02  -1.5161044897575538e-02  1.8337840170889655e-01  7.9525116257844697e-02  -8.3680209151939466e-02  1.7596249155433641e-01  1.2779703242553642e-01  3.2862932549894038e-02  -2.7710598478956221e-02  -4.6573498328789298e-03  -1.0294381325193042e-01  5.4461145033487285e-02  -2.9132516087970904e-03  -3.0071014624230220e-02  6.0477006884695261e-02  -1.0545409179130007e-01  -1.0123039282797175e-02  2.3605610604151922e-01  1.7099983803940570e-02  2.2421867198606102e-02  2.3317286546529615e-03  2.1425628855471241e-02  -2.1963227031093782e-02  1.2449310702795728e-02  -1.4396021671438780e-01  3.40888