<?xml version="1.0"?>
<VTKFile type="UnstructuredGrid"  version="0.1"  >
<UnstructuredGrid>
<Piece  NumberOfPoints="4826" NumberOfCells="9274">
<Points>
<DataArray  type="Float64"  NumberOfComponents="3"  format="ascii">0.004357787137616029 0.04980973490456689 0  2.448294430073374e-13 0.05 0  -0.004357787137128233 0.04980973490460956 0  -0.004357787137605706 -0.04980973490456778 0  -2.344882876518267e-13 -0.05 0  0.004357787137138513 -0.04980973490460866 0  -0.2 -0.2 0  0.55 -0.2 0  2 -0.2 0  2 0.21 0  0.55 0.21 0  -0.2 0.21 0  0.002180969368511386 0.0499524110790822 0  -0.002180969368010819 0.04995241107910407 0  -0.002180969368502513 -0.04995241107908259 0  0.002180969368021486 -0.0499524110791036 0  -0.006814597157868607 0.04953343583455493 0  -0.009254746151924908 0.04913603233537922 0  -0.01167226819248128 0.04861849601995923 0  -0.01406125267347753 0.04798209221420657 0  -0.01641585876037609 0.04722837686348521 0  -0.01873032967049142 0.04635919272846228 0  -0.02099900674774951 0.04537666487973717 0  -0.0232163432975249 0.04428319550226104 0  -0.0253769181477669 0.04308145802223435 0  -0.02747544890327456 0.04177439057082161 0  -0.02950680486062692 0.04036518880070902 0  -0.03146601955223609 0.03885729807305569 0  -0.0333483028888871 0.03725440503391573 0  -0.03514905287103829 0.03556042860074884 0  -0.03686386684027007 0.03377951038104073 0  -0.0384885522433417 0.0319160045464898 0  -0.04001913688258778 0.02997446718746979 0  -0.04145187862754741 0.0279596451738408 0  -0.04278327456411638 0.0258764645493049 0  -0.04401006955882648 0.02373001848771415 0  -0.04512926421732728 0.02152555484076227 0  -0.04613812221762188 0.01926846330748221 0  -0.04703417700009761 0.01696426225697686 0  -0.04781523779803292 0.0146185852365256 0  -0.04847939499380464 0.01223716719811699 0  -0.04902502478771633 0.009825830477053876 0  -0.04945079316803359 0.007390470556897103 0  -0.04975565917250895 0.004937041655599784 0  -0.04993887743343513 0.002471542168028815 0  -0.05000000000000002 4.319617580295088e-13 0  -0.04993887743347691 -0.002471542167184487 0  -0.04975565917259078 -0.004937041654775128 0  -0.0494507931681559 -0.007390470556078771 0  -0.04902502478787634 -0.00982583047625548 0  -0.048479394994003 -0.01223716719733118 0  -0.04781523779827011 -0.01461858523574979 0  -0.04703417700037211 -0.01696426225621582 0  -0.04613812221792003 -0.01926846330676828 0  -0.04512926421765873 -0.0215255548400674 0  -0.0440100695591652 -0.02373001848708596 0  -0.04278327456447995 -0.0258764645487038 0  -0.04145187862791943 -0.02795964517328926 0  -0.04001913688296869 -0.02997446718696123 0  -0.03848855224374843 -0.03191600454599933 0  -0.03686386684070041 -0.03377951038057109 0  -0.03514905287149575 -0.03556042860029668 0  -0.03334830288936536 -0.03725440503348761 0  -0.03146601955271191 -0.03885729807267038 0  -0.02950680486109357 -0.0403651888003679 0  -0.02747544890375341 -0.04177439057050667 0  -0.02537691814821718 -0.0430814580219691 0  -0.02321634329799415 -0.04428319550201502 0  -0.02099900674823039 -0.04537666487951462 0  -0.01873032967097447 -0.04635919272826711 0  -0.0164158587608675 -0.0472283768633144 0  -0.01406125267397827 -0.04798209221405982 0  -0.01167226819300015 -0.04861849601983465 0  -0.00925474615244812 -0.04913603233528067 0  -0.006814597158347743 -0.04953343583448901 0  0.006814597157865879 -0.04953343583455529 0  0.009254746151927097 -0.0491360323353788 0  0.01167226819248615 -0.04861849601995805 0  0.01406125267347329 -0.04798209221420779 0  0.01641585876037412 -0.04722837686348589 0  0.01873032967049753 -0.04635919272845981 0  0.02099900674775168 -0.04537666487973616 0  0.02321634329751479 -0.04428319550226633 0  0.02537691814775486 -0.04308145802224143 0  0.02747544890326525 -0.04177439057082774 0  0.02950680486061762 -0.04036518880071581 0  0.03146601955222702 -0.03885729807306303 0  0.0333483028888813 -0.03725440503392092 0  0.03514905287103634 -0.03556042860075076 0  0.03686386684026893 -0.03377951038104196 0  0.03848855224333972 -0.03191600454649218 0  0.04001913688258468 -0.02997446718747393 0  0.04145187862754592 -0.02795964517384301 0  0.04278327456411439 -0.02587646454930818 0  0.04401006955882308 -0.02373001848772046 0  0.04512926421732501 -0.02152555484076704 0  0.04613812221761816 -0.01926846330749109 0  0.04703417700009521 -0.01696426225698355 0  0.04781523779803072 -0.01461858523653281 0  0.04847939499380377 -0.01223716719812044 0  0.04902502478771547 -0.009825830477058137 0  0.04945079316803235 -0.007390470556905473 0  0.04975565917250727 -0.004937041655616693 0  0.0499388774334346 -0.002471542168039619 0  0.05 -4.403257272689309e-13 0  0.04993887743347755 0.002471542167171875 0  0.04975565917259197 0.004937041654763091 0  0.04945079316815711 0.007390470556070629 0  0.04902502478787914 0.009825830476241509 0  0.04847939499400326 0.01223716719733013 0  0.04781523779826526 0.01461858523576567 0  0.0470341770003617 0.01696426225624468 0  0.04613812221791593 0.01926846330677807 0  0.04512926421764892 0.02152555484008794 0  0.04401006955917259 0.02373001848707224 0  0.04278327456448917 0.02587646454868855 0  0.04145187862794129 0.02795964517325684 0  0.04001913688300011 0.02997446718691929 0  0.03848855224377164 0.03191600454597132 0  0.03686386684071396 0.03377951038055631 0  0.03514905287149344 0.03556042860029895 0  0.03334830288935025 0.03725440503350112 0  0.03146601955270811 0.03885729807267346 0  0.0295068048611069 0.04036518880035816 0  0.02747544890376348 0.04177439057050004 0  0.02537691814825449 0.04308145802194713 0  0.02321634329801946 0.04428319550200175 0  0.02099900674825754 0.04537666487950205 0  0.01873032967100249 0.04635919272825579 0  0.0164158587608822 0.04722837686330929 0  0.01406125267398022 0.04798209221405924 0  0.01167226819298624 0.04861849601983799 0  0.009254746152419701 0.04913603233528602 0  0.006814597158349477 0.04953343583448876 0  -0.187519667561546 -0.2 0  -0.1748316574821168 -0.2 0  -0.1619325192212862 -0.2 0  -0.148818726846035 -0.2 0  -0.1354867192353635 -0.2 0  -0.1219328603917423 -0.2 0  -0.1081534592978099 -0.2 0  -0.09414476589796635 -0.2 0  -0.07990295884356099 -0.2 0  -0.06542416303692469 -0.2 0  -0.05070442887227664 -0.2 0  -0.03573975841838681 -0.2 0  -0.02052606515274366 -0.2 0  -0.005059208927244263 -0.2 0  0.01066502121897589 -0.2 0  0.0266509074223695 -0.2 0  0.04290280916834216 -0.2 0  0.05942514657702952 -0.2 0  0.0762224259839136 -0.2 0  0.09329921648059353 -0.2 0  0.110660175036538 -0.2 0  0.1283100227830172 -0.2 0  0.1462535753141169 -0.2 0  0.1644957199166657 -0.2 0  0.1830414159977267 -0.2 0  0.2018957233573105 -0.2 0  0.2210637763821503 -0.2 0  0.2405507887204602 -0.2 0  0.260362079066015 -0.2 0  0.2805030358280229 -0.2 0  0.3009791451426284 -0.2 0  0.3217959904068706 -0.2 0  0.3429592343744705 -0.2 0  0.3644746437000989 -0.2 0  0.3863480795092348 -0.2 0  0.4085854991020529 -0.2 0  0.4311929577241948 -0.2 0  0.4541766164908302 -0.2 0  0.4775427321916551 -0.2 0  0.5012976684604897 -0.2 0  0.5254479006641548 -0.2 0  0.5749999999999358 -0.2 0  0.5999999999998969 -0.2 0  0.6249999999998155 -0.2 0  0.6499999999998081 -0.2 0  0.6749999999997656 -0.2 0  0.6999999999997664 -0.2 0  0.7249999999997357 -0.2 0  0.7499999999996745 -0.2 0  0.7749999999995796 -0.2 0  0.7999999999995281 -0.2 0  0.8249999999994608 -0.2 0  0.8499999999994138 -0.2 0  0.8749999999993301 -0.2 0  0.8999999999992546 -0.2 0  0.9249999999991836 -0.2 0  0.9499999999990955 -0.2 0  0.9749999999990373 -0.2 0  0.9999999999989423 -0.2 0  1.024999999998847 -0.2 0  1.049999999998752 -0.2 0  1.074999999998672 -0.2 0  1.099999999998649 -0.2 0  1.124999999998554 -0.2 0  1.149999999998545 -0.2 0  1.174999999998451 -0.2 0  1.199999999998416 -0.2 0  1.224999999998348 -0.2 0  1.249999999998288 -0.2 0  1.274999999998288 -0.2 0  1.299999999998246 -0.2 0  1.324999999998369 -0.2 0  1.349999999998394 -0.2 0  1.37499999999845 -0.2 0  1.399999999998551 -0.2 0  1.424999999998531 -0.2 0  1.449999999998684 -0.2 0  1.474999999998642 -0.2 0  1.499999999998804 -0.2 0  1.524999999998773 -0.2 0  1.549999999998885 -0.2 0  1.574999999999013 -0.2 0  1.599999999999079 -0.2 0  1.624999999999119 -0.2 0  1.649999999999211 -0.2 0  1.674999999999224 -0.2 0  1.699999999999321 -0.2 0  1.724999999999342 -0.2 0  1.749999999999427 -0.2 0  1.774999999999474 -0.2 0  1.799999999999533 -0.2 0  1.824999999999605 -0.2 0  1.849999999999639 -0.2 0  1.874999999999735 -0.2 0  1.899999999999745 -0.2 0  1.924999999999841 -0.2 0  1.949999999999869 -0.2 0  1.974999999999947 -0.2 0  2 -0.1758823529412649 0  2 -0.1517647058824698 0  2 -0.12764705882371 0  2 -0.103529411764951 0  2 -0.07941176470620959 0  2 -0.05529411764745706 0  2 -0.03117647058865336 0  2 -0.007058823529918185 0  2 0.01705882352889865 0  2 0.04117647058779714 0  2 0.06529411764668486 0  2 0.08941176470558332 0  2 0.1135294117644398 0  2 0.137647058823337 0  2 0.1617647058822356 0  2 0.185882352941134 0  1.975000000000015 0.21 0  1.950000000000055 0.21 0  1.925000000000061 0.21 0  1.90000000000011 0.21 0  1.875000000000116 0.21 0  1.850000000000166 0.21 0  1.825000000000172 0.21 0  1.800000000000206 0.21 0  1.775000000000227 0.21 0  1.750000000000322 0.21 0  1.725000000000369 0.21 0  1.700000000000375 0.21 0  1.675000000000454 0.21 0  1.650000000000517 0.21 0  1.62500000000057 0.21 0  1.600000000000658 0.21 0  1.575000000000687 0.21 0  1.550000000000789 0.21 0  1.525000000000806 0.21 0  1.500000000000905 0.21 0  1.475000000001007 0.21 0  1.450000000001109 0.21 0  1.42500000000121 0.21 0  1.400000000001312 0.21 0  1.375000000001406 0.21 0  1.350000000001428 0.21 0  1.32500000000153 0.21 0  1.300000000001554 0.21 0  1.275000000001647 0.21 0  1.250000000001522 0.21 0  1.225000000001572 0.21 0  1.200000000001437 0.21 0  1.175000000001446 0.21 0  1.15000000000137 0.21 0  1.125000000001303 0.21 0  1.100000000001302 0.21 0  1.075000000001145 0.21 0  1.050000000001136 0.21 0  1.025000000000966 0.21 0  1.000000000000931 0.21 0  0.9750000000008732 0.21 0  0.9500000000008135 0.21
[...]
<PointData  Scalars="pressure"> 
<DataArray  type="Float64"  Name="pressure"  format="ascii">-7.9893228169609021e-01  -7.4215702945359563e-01  -8.1357743704921870e-01  -1.0610109689721692e+00  -1.0262563457093119e+00  -8.4534878732257435e-01  4.5359713816131664e-01  1.1785255143614277e-01  0.0000000000000000e+00  0.0000000000000000e+00  2.0167212231495374e-01  4.9701819696977800e-01  -7.5981683500347375e-01  -7.4929109332602184e-01  -1.0807999991899306e+00  -9.4486457215082309e-01  -8.1987694488600460e-01  -8.3254458192595460e-01  -8.3229023696052551e-01  -8.2022141975499530e-01  -7.9463227027906014e-01  -7.5226978243079812e-01  -6.9576429666157569e-01  -6.2544188541276946e-01  -5.3721424081079550e-01  -4.3193507870318160e-01  -3.1263818687704603e-01  -1.8380960162752372e-01  -4.3084923662403067e-02  1.1293904864400434e-01  2.7153829654456751e-01  4.4009340032342764e-01  6.0906278989944596e-01  7.7585081393563449e-01  9.4735854594981572e-01  1.1059946994840597e+00  1.2647691324783377e+00  1.4093517321233995e+00  1.5416915092875516e+00  1.6618387773291545e+00  1.7631447739693027e+00  1.8462743998011741e+00  1.9107080103235885e+00  1.9558047735945461e+00  1.9752624367953990e+00  1.9747650944975630e+00  1.9523803778342372e+00  1.9069402606121029e+00  1.8413656314809121e+00  1.7542374557400091e+00  1.6498250438519675e+00  1.5300054177151639e+00  1.3908927594424838e+00  1.2430307307262360e+00  1.0809384686006636e+00  9.1014259525711561e-01  7.3518324145712377e-01  5.5534994192422205e-01  3.7847141514325955e-01  2.0233903116743812e-01  2.4805247138057551e-02  -1.3344555344077649e-01  -2.9593910577432292e-01  -4.3971366673872631e-01  -5.7293495338085276e-01  -6.9412541269575501e-01  -8.0144599388764681e-01  -8.8920713354917169e-01  -9.6742157749946334e-01  -1.0226222283130928e+00  -1.0686732388602154e+00  -1.0948232288551283e+00  -1.1087531743096075e+00  -1.1084742777538696e+00  -1.0972264419736311e+00  -8.2757310219746039e-01  -7.8956426386622036e-01  -7.5029712292088557e-01  -7.1156410512712032e-01  -6.7569233646838911e-01  -6.4260452399601342e-01  -6.1273988883398867e-01  -5.8599100195818821e-01  -5.6229032114241695e-01  -5.4167993800339975e-01  -5.2357078666279699e-01  -5.0862228474682114e-01  -4.9649328293630068e-01  -4.8648160004453195e-01  -4.7880360560742669e-01  -4.7280294963086228e-01  -4.6859001706471892e-01  -4.6500541575131443e-01  -4.6210914780147300e-01  -4.5926756519437784e-01  -4.5595128618007835e-01  -4.5237193968367367e-01  -4.4791734514863152e-01  -4.4263683642654844e-01  -4.3699357695253638e-01  -4.3024317159680975e-01  -4.2349348834530270e-01  -4.1631833968103626e-01  -4.0938151282099594e-01  -4.0295334441809200e-01  -3.9716703449346324e-01  -3.9242033204294685e-01  -3.8905813661451621e-01  -3.8659207068184592e-01  -3.8569801941877607e-01  -3.8591185390559696e-01  -3.8722421147487779e-01  -3.8944032648368637e-01  -3.9262911309940035e-01  -3.9639001380269556e-01  -4.0072680710681469e-01  -4.0564468841871848e-01  -4.1106037458919181e-01  -4.1691130946399674e-01  -4.2335557205491497e-01  -4.3059440857138215e-01  -4.3868285309196053e-01  -4.4814032566205980e-01  -4.5890402976837735e-01  -4.7186598868664703e-01  -4.8681012488607089e-01  -5.0468768610217329e-01  -5.2535968872702932e-01  -5.4939288075852910e-01  -5.7676212687251793e-01  -6.0765440927424608e-01  -6.4176150068357729e-01  -6.7996442019662040e-01  -7.1883260779518687e-01  4.5296605534861489e-01  4.5213806779436611e-01  4.5027873057307166e-01  4.4750288985868980e-01  4.4297403222886739e-01  4.3627522210223241e-01  4.2649724668018418e-01  4.1320074139707552e-01  3.9505668537843935e-01  3.7194435688617516e-01  3.4318424273124754e-01  3.0787850243310222e-01  2.6845620609432708e-01  2.2358033914009831e-01  1.7682166222113710e-01  1.3022708940618277e-01  8.4935158517861167e-02  4.1870095878150340e-02  6.1109498217761958e-03  -2.5872932704330508e-02  -4.9119882022143062e-02  -6.6516780097319053e-02  -7.5823459657023820e-02  -8.0937079921235916e-02  -7.7384524193480630e-02  -6.8354425326983270e-02  -5.2037106021427658e-02  -2.7292082033442577e-02  5.4790871074768405e-03  4.7506700352947462e-02  9.9214997132341748e-02  1.5489299616949029e-01  2.1075973329043116e-01  2.6063437159622482e-01  2.9824284624743702e-01  3.1992872111077147e-01  3.1781633877430077e-01  2.9583526451159975e-01  2.5089444841195274e-01  1.9905119402723598e-01  1.5253785099584163e-01  9.7278369309302296e-02  8.8058567962951001e-02  8.0317328700213547e-02  7.1487665120496938e-02  6.6965223430350510e-02  7.5969724609568537e-02  1.0162205865749534e-01  1.4050846149338395e-01  1.8306911968433415e-01  2.1782611122112489e-01  2.4008525480004184e-01  2.4550720539429405e-01  2.3620569956330711e-01  2.1857543295363951e-01  1.9275763190740020e-01  1.6128105778192961e-01  1.2512109878733893e-01  8.5548373338652950e-02  4.2006402473384809e-02  2.5243019296322554e-03  -1.9138113547099510e-02  -1.6097421923886863e-02  1.9154744080133151e-02  7.3413018229826987e-02  1.2934414992050888e-01  1.8029559332885464e-01  2.1192028551161343e-01  2.2454283941882833e-01  2.1495770351536347e-01  1.9039178544240357e-01  1.5168872683891266e-01  1.0117775070008200e-01  4.8451872524656381e-02  7.3106887368262687e-04  -3.6161323336218930e-02  -4.8707335511436273e-02  -4.4659538083369144e-02  -2.6249869856336271e-02  6.6743682012429346e-03  4.1916965846391971e-02  7.5118082078492757e-02  1.0259034198478895e-01  1.1858983230084565e-01  1.2305432613558176e-01  1.1374681041126961e-01  9.4811316452694902e-02  6.6091786182024617e-02  3.2536899025654611e-02  -3.7285198218763044e-03  -3.6974916726187072e-02  -6.1105645937374393e-02  -7.4963717070807956e-02  -7.6602078786862121e-02  -6.7321957014887412e-02  -5.0843042877180000e-02  -3.0855224158911568e-02  -1.3606579251432898e-02  0.0000000000000000e+00  0.0000000000000000e+00  0.0000000000000000e+00  0.0000000000000000e+00  0.0000000000000000e+00  0.0000000000000000e+00  0.0000000000000000e+00  0.0000000000000000e+00  0.0000000000000000e+00  0.0000000000000000e+00  0.0000000000000000e+00  0.0000000000000000e+00  0.0000000000000000e+00  0.0000000000000000e+00  0.0000000000000000e+00  0.0000000000000000e+00  2.2054364112955530e-02  4.5290348739518663e-02  6.8559846218070944e-02  8.7938923260844459e-02  9.8168697720309034e-02  9.9988133408451724e-02  9.2913401037613835e-02  7.6332768976471774e-02  5.4292515165637309e-02  3.0309058126692018e-02  3.0382671330850442e-03  -1.8966249521873611e-02  -3.4729415004292441e-02  -3.9811285609270934e-02  -3.0288270183024140e-02  -7.6887844410846330e-03  2.6169534250725157e-02  6.4468207029322225e-02  1.0428637835663673e-01  1.3787756491398875e-01  1.6115060644011192e-01  1.7213041882248720e-01  1.6780636264315085e-01  1.4613206811458174e-01  1.1361042876474195e-01  6.8644986630246665e-02  1.9331023265051404e-02  -1.9175682030990886e-02  -3.9998453793207572e-02  -3.1445251921549136e-02  -1.0780415275277488e-04  4.8386847217194780e-02  1.0042897354252578e-01  1.4688894623768797e-01  1.8871492262316594e-01  2.1861755759288895e-01  2.3985898399705455e-01  2.4512804638446398e-01  2.2826366229026043e-01  1.9055799191260739e-01  1.3849720324161241e-01  8.1555200946856324e-02  4.0513765005457100e-02  2.1797870061346446e-02  3.0141662343822085e-02  5.0058276287917133e-02  8.1225917378097381e-02  1.1186147914907291e-01  1.4049375692275534e-01  1.6712614763086392e-01  1.8965097491812463e-01  2.1095955252106524e-01  2.3025989312439527e-01  2.4536711078220111e-01  2.5189829929915269e-01  2.4747916965962094e-01  2.3158104081274872e-01  1.6281386821560861e-01  1.2086395974033441e-01  7.3191486420717183e-02  3.1533314165322769e-02  -2.3378846115374341e-03  -1.9624132631134578e-02  -2.5970925812082078e-02  -1.2482598182276324e-02  9.5863799961664123e-03  3.5835947227871714e-02  5.9005301704570363e-02  7.8094345998016568e-02  8.8959304597331243e-02  9.4635049952781825e-02  9.6629496444348650e-02  9.5747794374506354e-02  9.4258952526836928e-02  9.3489671354721249e-02  9.5798366937240712e-02  1.0228385191974787e-01  1.1256232568469898e-01  1.2909352684965841e-01  1.5112957266772364e-01  1.7747421284770315e-01  2.0874203044341599e-01  2.4264982641296604e-01  2.7765495004501556e-01  3.1269580677275266e-01  3.4575447628177552e-01  3.7613618822640471e-01  4.0230850947571017e-01  4.2517528196720666e-01  4.4360793158751965e-01  4.5821995782559444e-01  4.7006211214397198e-01  4.7868153266553476e-01  4.8538366693803614e-01  4.8998454594112589e-01  4.9317833751938162e-01  4.9517037762570770e-01  4.9631457724210498e-01  4.9689416132652880e-01  4.9787901184409311e-01  5.0131650235189440e-01  5.0828442172708355e-01  5.1959334952341396e-01  5.3599247348762058e-01  5.5756291759081666e-01  5.8411818506987212e-01  6.1507968379507472e-01  6.4951794804422702e-01  6.8531417967044594e-01  7.2094781913661798e-01  7.5354752498130506e-01  7.8032952079819207e-01  7.9980136050689432e-01  8.1038610727941862e-01  8.0810097252586410e-01  7.9608664824491182e-01  7.7377149584086491e-01  7.4283470437827837e-01  7.0678008131674519e-01  6.6659883709217105e-01  6.2624470190865467e-01  5.8718759041792234e-01  5.5205817948805291e-01  5.2171386512461049e-01  4.9717593017851308e-01  4.7862058274516250e-01  4.6572997365220187e-01  4.5822648174527070e-01  4.5428546027210637e-01  4.5345314281407612e-01  1.1335109724574594e-01  1.0006501788491602e-01  8.4257360324969582e-02  7.7911961233743735e-02  7.0049334071804165e-02  4.8984171252987922e-02  6.1453073224287131e-03  -3.6014078996648255e-02  -5.7604153653984795e-02  -5.0037265923409844e-03  6.4321512954264595e-02  1.3677685621216998e-01  1.7658543764040174e-01  1.9107301450407324e-01  2.0118476921004450e-01  2.0070420900767194e-01  -1.2991663096088346e-01  -3.6096468936729083e-02  -3.9432148166140414e-02  -3.1460980912333639e-02  5.8136185809716877e-02  -6.7735634243365303e-02  -7.8241668070641021e-02  1.0333112010840983e-02  2.9014030012708161e-02  1.5067519098473312e-01  1.2416901507816140e-01  1.0988289864679310e-01  -8.2152077225749881e-03  1.1842422180734187e-01  2.2468558066268476e-01  -5.5044905537842970e-02  -1.4462888609047347e-01  2.4779222163985301e-01  -4.1566519389526470e-02  9.4729622828050905e-02  3.8289514369284364e-02  9.4034078924105161e-02  -2.9265157392257428e-02  -1.4723983284237385e-01  -3.9430349509321831e-02  1.4911711752248585e-01  -1.2803288908630681e-01  2.2950890565340648e-01  4.4514450246497667e-02  -4.4471478285030994e-02  1.9808673462992973e-01  -1.1908465210568321e-01  1.0055389201638096e-01  -8.8325437876951074e-02  -6.2129611043962953e-02  -2.4947794563319279e-02  -2.4518069857324330e-02  2.3015014609321455e-01  -1.0083528128130030e-03  -1.2266812283440374e-02  8.8254026831104393e-02  -4.8590982619157305e-03  2.8195363274886927e-02  1.4854011634977030e-01  1.9510101771894242e-01  1.0206344287406377e-01  6.9287587848796559e-02  -1.4050628597978274e-01  7.2363816457920296e-02  7.6795519768922932e-02  2.7406789577587209e-01  -6.1819305632280046e-02  -1.9056997353167418e-02  -3.3536899391061477e-02  1.1121841891100032e-01  -5.6724749809653176e-02  -6.0233507284954635e-02  7.9657556392485410e-02  7.8410129793823946e-02  1.5322528177297973e-01  2.7175875813240236e-01  -1.1114039514932350e-01  -1.2427877578819957e-01  -9.7878538794106087e-02  2.1015520495108889e-01  1.2011286031544464e-01  -5.1549809717943089e-02  5.4694051829418621e-04  6.2610710187861296e-02  6.7281635731524042e-02  2.1859054762574015e-01  5.1085178288093801e-02  3.8723432942435146e-02  -7.1606532518995319e-02  1.2119289031285463e-01  -6.9926313588054428e-02  2.7855809872936919e-02  -1.3426273045058865e-01  -2.9752457284219042e-01  1.4116435554314133e-01  9.8265639097267501e-02  2.5623303019296390e-01  -1.9235882384449168e-01  3.9905826259081886e-02  8.9447282169610620e-02  1.1524079326399130e-01  -1.2511381868206720e-01  6.9347447337611487e-02  5.1962907737052526e-02  2.3830448599423884e-01  1.1264650654630633e-01  1.6452500829846187e-01  1.2637621742929117e-01  -1.1374000328466778e-01  2.0707676187526187e-02  -4.6544213661367302e-02  -3.5066917916802835e-03  -4.0358399602011978e-02  4.9746540887532394e-02  -1.9912051536829178e-02  1.3354742034476494e-01  8.2977200165302592e-02  -4.9412630665492480e-02  2.3947782656981609e-01  -5.5143304389163950e-03  -1.0972548895946151e-01  1.2233720550986585e-01  1.3055028187096883e-02  1.7018335041246080e-01  -1.6054942211815548e-01  1.5190527523941136e-01  -1.8262814871809576e-03  1.2949822286405488e-01  -7.7065012123164550e-02  3.4118494438826383e-03  1.4064881049160671e-01  -1.3869650266622001e-02  9.6501512234835763e-03  3.4675561757236933e-02  -1.3325038135988686e-02  2.0219747239896668e-02  5.4311893632337897e-03  -8.4261127568983935e-02  2.4744841620308547e-01  2.5014095328172808e-01  1.7854198636816987e-01  -1.8473917640619467e-01  2.9819608483346201e-02  -6.9585858315474633e-02  5.3554132119630156e-03  4.7900095049607738e-02  -3.1696639500530324e-02  1.5385717183575692e-01  -5.0668012385796532e-02  2.9848567631641766e-02  2.5674874683443966e-01  6.3210398405441057e-02  1.1196837583186332e-01  3.9507945085471480e-02  4.8614860771998995e-02  2.5568941143163071e-01  5.8997918244259928e-02  -3.6278086313308693e-02  5.4674391904912467e-02  1.5694953272788928e-01  1.0364787988374327e-01  -1.3437485288518555e-01  2.0099462918556274e-01  4.5289257279043704e-02  9.1041849343601614e-02  2.1354466337767719e-01  -1.0324595412292034e-01  -1.2951807730161727e-01  1.3700721444206751e-01  -7.0288021269008336e-02  -3.0247299195015186e-02  -1.3307550725904890e-01  -3.6093371214637862e-02  1.2022156048448869e-02  2.0531310275558126e-01  -6.6439003270474986e-02  5.3454720790242861e-02  3.2489509592329199e-02  -6.0754635825812288e-02  -4.5853420587721329e-02  -9.1357793275723576e-02  -2.0092711463368666e-02  3.8096657497022249e-02  6.7190746742423521e-02  -1.4046988402960942e-01  -1.0331517134333693e-01  1.3587914729417147e-01  -5.6348126260315046e-02  9.6505417509863911e-02  -1.1408631848858744e-01  -4.7219822060807451e-02  -3.6750817610967906e-02  2.2703787966935372e-02  3.0063390589041054e-02  -1.7016102291355556e-02  2.0284282483671126e-01  1.3396773818229468e-01  -2.0985543208116794e-01  -1.3543900292714917e-01  1.1943070446790403e-01  8.5714796472537672e-02  3.6158635716194681e-02  2.4899650558955980e-01  -2.4125087161186609e-02  2.7106475342003146e-02  1.4763514476588160e-01  1.4786236734799516e-01  9.2878009808461892e-02  2.2406850024475145e-01  -5.1204743087268547e-03  -8.5659651719562201e-03  1.1020849669190264e-01  4.1543843477950216e-03  2.3923749046145007e-01  5.9441986673035900e-02  1.8068626146430472e-01  -5.8047974318818849e-02  -2.2639455998216196e-01  7.4416871436133819e-02  1.2122042338100558e-01  2.3324359174020974e-02  1.7393697249616449e-01  1.0183497570250015e-01  1.8088422567895690e-01  -3.9781824391040985e-02  -5.7770350026626928e-02  2.0091713895225241e-01  1.3539153974702173e-02  -9.0864327463409722e-02  -1.0813310719558231e-01  5.2721444567485815e-02  -9.8272872710179579e-02  9.6908332737609057e-02  2.6381394884167797e-01  2.1816089421304991e-01  1.9081419334865671e-01  1.2931727121125924e-01  5.3211080048785046e-02  4.5538760876411122e-02  7.0978313146951005e-03  6.2868862297600622e-02  3.3657869122717697e-02  4.6694070522744081e-02  3.0417318718692219e-02  3.0931120654442770e-02  -3.0372558991039633e-02  -9.7491779224268577e-02  -3.0718385606332138e-02  5.8108927299481930e-02  2.5040687896272412e-01  4.7662058844540618e-02  3.0342479846523121e-02  -1.5236145734144976e-01  2.1913725388102201e-01  1.4883149968933626e-01  2.5059841239554415e-01  -1.1412213824022421e-01  1.7810705978652425e-01  -5.4899864941917393e-03  7.4446579364485413e-02  -3.9095139179200350e-03  3.3813762169676784e-02  -2.8521700378351052e-02  -1.6992306011778177e-01  -5.6643166137566217e-02  1.9557111750735104e-01  1.6014124084944356e-01  -1.1008185488121744e-01  1.1052837419848588e-01  9.3547052618710470e-03  5.7978470554059691e-02  2.5001278272649568e-02  -1.0967491402986692e-02  -2.9721946486539921e-03  9.4730673456865061e-02  -2.4135950757839010e-02  -5.3619314142859629e-04  2.7130910378209466e-01  1.0003806640833759e-01  1.5341890790119880e-01  -1.6357751595816614e-01  6.7808741566733166e-02  -5.9488265158692114e-02  2.5918956835201673e-01  1.0435373293330071e-01  1.2926781247022281e-01  -1.0736745365878622e-01  -8.2083993050337423e-02  -1.2682728761854219e-02  1.5060727151030587e-01  -2.1546632239553126e-01  1.6315326165537131e-01  -5.3331052648908625e-02  1.2089586977941651e-01  8.3512868699176776e-02  -2.4568269621588670e-02  1.1117754958503427e-01  5.6344046562555317e-02  -5.4153681067802030e-02  3.5152596760525706e-02  2.4664148874375766e-01  6.6076283942440986e-02  -2.1061510286863937e-02  -3.0197610457983443e-02  9.9278621629397615e-02  1.0891116557773572e-01  -4.9683499943132821e-02  -4.8114497663079125e-02  1.2096538391054709e-01  -1.2957344684825506e-02  -9.7300355677971975e-02  1.2966256843900706e-01  2.2678831696079013e-01  4.4841777295193931e-02  -2.5314128050414827e-02  -6.2730919376683569e-02  -3.2229961858302895e-02  1.1150886263828461e-01  -8.5896537639823106e-02  2.1475837762863481e-01  2.5447577151363154e-01  5.5337336200844162e-02  4.6003489676367061e-02  -5.8508051378975683e-02  -6.3944999569003208e-02  1.7249394123253337e-01  4.2336227854738229e-02  2.5221528953551209e-01  -1.6285966421019354e-01  -7.8809342959576187e-02  2.6855076947984564e-02  2.8291126304516814e-02  1.9697791094468428e-01  2.4754153506237709e-02  1.2109785499588170e-01  -1.9150679643449645e-02  -2.0641427712771385e-01  1.3283697902753991e-01  9.6286839819644063e-03  8.0718175263555930e-02  2.7566455760018693e-01  -1.7393338126698465e-01  4.6008283601325403e-02  -1.1693723573282497e-01  1.2446970803250897e-01  8.9483232475569430e-03  7.8474468554247362e-02  6.0872523676928164e-02  -7.8326494553380782e-02  -3.3189916134179043e-02  2.8622514888880863e-02  6.0408813601409046e-02  2.9177763032617550e-02  -1.0652768188247848e-01  1.2817394033118279e-01  2.0498489122682179e-01  -7.6106432394718940e-02  3.3965001212995602e-02  4.3053056022423368e-02  1.5723629587090558e-03  -2.0896538209996071e-01  2.4280588130187580e-01  -1.3235745865534129e-01  1.0387471721766522e-01  6.9668078772299899e-02  1.1539411039128580e-02  1.1114085314503812e-01  4.3312258936833797e-02  2.3429247916632687e-01  9.0273165084467047e-02  1.2848120318358033e-01  -7.2206664747403518e-03  -1.3387594757936213e-02  1.4103156736623827e-02  1.5071843527785350e-01  3.9048495559338162e-02  1.7795363623638183e-01  1.0055720636062179e-01  -9.5272693586409881e-03  -2.6408976651446023e-02  -1.2451379411894482e-02  -2.3067235271852591e-03  2.1766564964145127e-01  1.3132565409368177e-01  -1.7594751354469537e-01  -2.1435278383634914e-02  6.0241469178565175e-02  -1.7467098984227322e-02  1.1648358354819133e-01  1.9350329565229354e-01  2.1963771195316173e-01  -1.1396326424176252e-01  -4.0419597884769629e-03  -1.5906229497822411e-01  2.2344638432070035e-01  2.0840826153467404e-01  -3.0669704653654910e-02  -3.8355463170676389e-02  1.0236736338754336e-01  8.6579995989530215e-02  -8.3849719729462233e-03  1.6556484201903255e-03  1.2195830889962268e-01  -1.0585797315552638e-01  1.7102685684371011e-01  -5.6239272334562697e-02  1.9086731991858299e-01  -1.1809264672080014e-01  7.0110872137337432e-04  -5.8684479632640653e-02  -1.9624170964584995e-02  -8.9872159669478355e-02  1.5118640822757709e-01  8.3332066873845784e-02  -4.2451683625231900e-03  1.8395378365354831e-01  9.4389169683907731e-02  -6.5229455150298626e-02  1.9547943189479014e-01  1.2757835890780769e-01  -3.4253150054278411e-02  -7.0951197122378337e-02  -4.4603790822122904e-03  -6.8829316323167258e-02  5.3672573402388145e-02  -2.1352689326022384e-02  2.6926204346612106e-02  9.9785504722530435e-02  -3.6921980731752659e-02  -4.6547781578654898e-02  2.2085772842408294e-01  -1.0075528195720499e-02  1.8586002233568228e-02  -4.7229958883336001e-03  1.8889792792628597e-02  3.3758132339900999e-02  5.7120692786557037e-03  -1.666139214232154