<?xml version="1.0"?>
<VTKFile type="UnstructuredGrid"  version="0.1"  >
<UnstructuredGrid>
<Piece  NumberOfPoints="4826" NumberOfCells="9274">
<Points>
<DataArray  type="Float64"  NumberOfComponents="3"  format="ascii">0.004357787137616029 0.04980973490456689 0  2.448294430073374e-13 0.05 0  -0.004357787137128233 0.04980973490460956 0  -0.004357787137605706 -0.04980973490456778 0  -2.344882876518267e-13 -0.05 0  0.004357787137138513 -0.04980973490460866 0  -0.2 -0.2 0  0.55 -0.2 0  2 -0.2 0  2 0.21 0  0.55 0.21 0  -0.2 0.21 0  0.002180969368511386 0.0499524110790822 0  -0.002180969368010819 0.04995241107910407 0  -0.002180969368502513 -0.04995241107908259 0  0.002180969368021486 -0.0499524110791036 0  -0.006814597157868607 0.04953343583455493 0  -0.009254746151924908 0.04913603233537922 0  -0.01167226819248128 0.04861849601995923 0  -0.01406125267347753 0.04798209221420657 0  -0.01641585876037609 0.04722837686348521 0  -0.01873032967049142 0.04635919272846228 0  -0.02099900674774951 0.04537666487973717 0  -0.0232163432975249 0.04428319550226104 0  -0.0253769181477669 0.04308145802223435 0  -0.02747544890327456 0.04177439057082161 0  -0.02950680486062692 0.04036518880070902 0  -0.03146601955223609 0.03885729807305569 0  -0.0333483028888871 0.03725440503391573 0  -0.03514905287103829 0.03556042860074884 0  -0.03686386684027007 0.03377951038104073 0  -0.0384885522433417 0.0319160045464898 0  -0.04001913688258778 0.02997446718746979 0  -0.04145187862754741 0.0279596451738408 0  -0.04278327456411638 0.0258764645493049 0  -0.04401006955882648 0.02373001848771415 0  -0.04512926421732728 0.02152555484076227 0  -0.04613812221762188 0.01926846330748221 0  -0.04703417700009761 0.01696426225697686 0  -0.04781523779803292 0.0146185852365256 0  -0.04847939499380464 0.01223716719811699 0  -0.04902502478771633 0.009825830477053876 0  -0.04945079316803359 0.007390470556897103 0  -0.04975565917250895 0.004937041655599784 0  -0.04993887743343513 0.002471542168028815 0  -0.05000000000000002 4.319617580295088e-13 0  -0.04993887743347691 -0.002471542167184487 0  -0.04975565917259078 -0.004937041654775128 0  -0.0494507931681559 -0.007390470556078771 0  -0.04902502478787634 -0.00982583047625548 0  -0.048479394994003 -0.01223716719733118 0  -0.04781523779827011 -0.01461858523574979 0  -0.04703417700037211 -0.01696426225621582 0  -0.04613812221792003 -0.01926846330676828 0  -0.04512926421765873 -0.0215255548400674 0  -0.0440100695591652 -0.02373001848708596 0  -0.04278327456447995 -0.0258764645487038 0  -0.04145187862791943 -0.02795964517328926 0  -0.04001913688296869 -0.02997446718696123 0  -0.03848855224374843 -0.03191600454599933 0  -0.03686386684070041 -0.03377951038057109 0  -0.03514905287149575 -0.03556042860029668 0  -0.03334830288936536 -0.03725440503348761 0  -0.03146601955271191 -0.03885729807267038 0  -0.02950680486109357 -0.0403651888003679 0  -0.02747544890375341 -0.04177439057050667 0  -0.02537691814821718 -0.0430814580219691 0  -0.02321634329799415 -0.04428319550201502 0  -0.02099900674823039 -0.04537666487951462 0  -0.01873032967097447 -0.04635919272826711 0  -0.0164158587608675 -0.0472283768633144 0  -0.01406125267397827 -0.04798209221405982 0  -0.01167226819300015 -0.04861849601983465 0  -0.00925474615244812 -0.04913603233528067 0  -0.006814597158347743 -0.04953343583448901 0  0.006814597157865879 -0.04953343583455529 0  0.009254746151927097 -0.0491360323353788 0  0.01167226819248615 -0.04861849601995805 0  0.01406125267347329 -0.04798209221420779 0  0.01641585876037412 -0.04722837686348589 0  0.01873032967049753 -0.04635919272845981 0  0.02099900674775168 -0.04537666487973616 0  0.02321634329751479 -0.04428319550226633 0  0.02537691814775486 -0.04308145802224143 0  0.02747544890326525 -0.04177439057082774 0  0.02950680486061762 -0.04036518880071581 0  0.03146601955222702 -0.03885729807306303 0  0.0333483028888813 -0.03725440503392092 0  0.03514905287103634 -0.03556042860075076 0  0.03686386684026893 -0.03377951038104196 0  0.03848855224333972 -0.03191600454649218 0  0.04001913688258468 -0.02997446718747393 0  0.04145187862754592 -0.02795964517384301 0  0.04278327456411439 -0.02587646454930818 0  0.04401006955882308 -0.02373001848772046 0  0.04512926421732501 -0.02152555484076704 0  0.04613812221761816 -0.01926846330749109 0  0.04703417700009521 -0.01696426225698355 0  0.04781523779803072 -0.01461858523653281 0  0.04847939499380377 -0.01223716719812044 0  0.04902502478771547 -0.009825830477058137 0  0.04945079316803235 -0.007390470556905473 0  0.04975565917250727 -0.004937041655616693 0  0.0499388774334346 -0.002471542168039619 0  0.05 -4.403257272689309e-13 0  0.04993887743347755 0.002471542167171875 0  0.04975565917259197 0.004937041654763091 0  0.04945079316815711 0.007390470556070629 0  0.04902502478787914 0.009825830476241509 0  0.04847939499400326 0.01223716719733013 0  0.04781523779826526 0.01461858523576567 0  0.0470341770003617 0.01696426225624468 0  0.04613812221791593 0.01926846330677807 0  0.04512926421764892 0.02152555484008794 0  0.04401006955917259 0.02373001848707224 0  0.04278327456448917 0.02587646454868855 0  0.04145187862794129 0.02795964517325684 0  0.04001913688300011 0.02997446718691929 0  0.03848855224377164 0.03191600454597132 0  0.03686386684071396 0.03377951038055631 0  0.03514905287149344 0.03556042860029895 0  0.03334830288935025 0.03725440503350112 0  0.03146601955270811 0.03885729807267346 0  0.0295068048611069 0.04036518880035816 0  0.02747544890376348 0.04177439057050004 0  0.02537691814825449 0.04308145802194713 0  0.02321634329801946 0.04428319550200175 0  0.02099900674825754 0.04537666487950205 0  0.01873032967100249 0.04635919272825579 0  0.0164158587608822 0.04722837686330929 0  0.01406125267398022 0.04798209221405924 0  0.01167226819298624 0.04861849601983799 0  0.009254746152419701 0.04913603233528602 0  0.006814597158349477 0.04953343583448876 0  -0.187519667561546 -0.2 0  -0.1748316574821168 -0.2 0  -0.1619325192212862 -0.2 0  -0.148818726846035 -0.2 0  -0.1354867192353635 -0.2 0  -0.1219328603917423 -0.2 0  -0.1081534592978099 -0.2 0  -0.09414476589796635 -0.2 0  -0.07990295884356099 -0.2 0  -0.06542416303692469 -0.2 0  -0.05070442887227664 -0.2 0  -0.03573975841838681 -0.2 0  -0.02052606515274366 -0.2 0  -0.005059208927244263 -0.2 0  0.01066502121897589 -0.2 0  0.0266509074223695 -0.2 0  0.04290280916834216 -0.2 0  0.05942514657702952 -0.2 0  0.0762224259839136 -0.2 0  0.09329921648059353 -0.2 0  0.110660175036538 -0.2 0  0.1283100227830172 -0.2 0  0.1462535753141169 -0.2 0  0.1644957199166657 -0.2 0  0.1830414159977267 -0.2 0  0.2018957233573105 -0.2 0  0.2210637763821503 -0.2 0  0.2405507887204602 -0.2 0  0.260362079066015 -0.2 0  0.2805030358280229 -0.2 0  0.3009791451426284 -0.2 0  0.3217959904068706 -0.2 0  0.3429592343744705 -0.2 0  0.3644746437000989 -0.2 0  0.3863480795092348 -0.2 0  0.4085854991020529 -0.2 0  0.4311929577241948 -0.2 0  0.4541766164908302 -0.2 0  0.4775427321916551 -0.2 0  0.5012976684604897 -0.2 0  0.5254479006641548 -0.2 0  0.5749999999999358 -0.2 0  0.5999999999998969 -0.2 0  0.6249999999998155 -0.2 0  0.6499999999998081 -0.2 0  0.6749999999997656 -0.2 0  0.6999999999997664 -0.2 0  0.7249999999997357 -0.2 0  0.7499999999996745 -0.2 0  0.7749999999995796 -0.2 0  0.7999999999995281 -0.2 0  0.8249999999994608 -0.2 0  0.8499999999994138 -0.2 0  0.8749999999993301 -0.2 0  0.8999999999992546 -0.2 0  0.9249999999991836 -0.2 0  0.9499999999990955 -0.2 0  0.9749999999990373 -0.2 0  0.9999999999989423 -0.2 0  1.024999999998847 -0.2 0  1.049999999998752 -0.2 0  1.074999999998672 -0.2 0  1.099999999998649 -0.2 0  1.124999999998554 -0.2 0  1.149999999998545 -0.2 0  1.174999999998451 -0.2 0  1.199999999998416 -0.2 0  1.224999999998348 -0.2 0  1.249999999998288 -0.2 0  1.274999999998288 -0.2 0  1.299999999998246 -0.2 0  1.324999999998369 -0.2 0  1.349999999998394 -0.2 0  1.37499999999845 -0.2 0  1.399999999998551 -0.2 0  1.424999999998531 -0.2 0  1.449999999998684 -0.2 0  1.474999999998642 -0.2 0  1.499999999998804 -0.2 0  1.524999999998773 -0.2 0  1.549999999998885 -0.2 0  1.574999999999013 -0.2 0  1.599999999999079 -0.2 0  1.624999999999119 -0.2 0  1.649999999999211 -0.2 0  1.674999999999224 -0.2 0  1.699999999999321 -0.2 0  1.724999999999342 -0.2 0  1.749999999999427 -0.2 0  1.774999999999474 -0.2 0  1.799999999999533 -0.2 0  1.824999999999605 -0.2 0  1.849999999999639 -0.2 0  1.874999999999735 -0.2 0  1.899999999999745 -0.2 0  1.924999999999841 -0.2 0  1.949999999999869 -0.2 0  1.974999999999947 -0.2 0  2 -0.1758823529412649 0  2 -0.1517647058824698 0  2 -0.12764705882371 0  2 -0.103529411764951 0  2 -0.07941176470620959 0  2 -0.05529411764745706 0  2 -0.03117647058865336 0  2 -0.007058823529918185 0  2 0.01705882352889865 0  2 0.04117647058779714 0  2 0.06529411764668486 0  2 0.08941176470558332 0  2 0.1135294117644398 0  2 0.137647058823337 0  2 0.1617647058822356 0  2 0.185882352941134 0  1.975000000000015 0.21 0  1.950000000000055 0.21 0  1.925000000000061 0.21 0  1.90000000000011 0.21 0  1.875000000000116 0.21 0  1.850000000000166 0.21 0  1.825000000000172 0.21 0  1.800000000000206 0.21 0  1.775000000000227 0.21 0  1.750000000000322 0.21 0  1.725000000000369 0.21 0  1.700000000000375 0.21 0  1.675000000000454 0.21 0  1.650000000000517 0.21 0  1.62500000000057 0.21 0  1.600000000000658 0.21 0  1.575000000000687 0.21 0  1.550000000000789 0.21 0  1.525000000000806 0.21 0  1.500000000000905 0.21 0  1.475000000001007 0.21 0  1.450000000001109 0.21 0  1.42500000000121 0.21 0  1.400000000001312 0.21 0  1.375000000001406 0.21 0  1.350000000001428 0.21 0  1.32500000000153 0.21 0  1.300000000001554 0.21 0  1.275000000001647 0.21 0  1.250000000001522 0.21 0  1.225000000001572 0.21 0  1.200000000001437 0.21 0  1.175000000001446 0.21 0  1.15000000000137 0.21 0  1.125000000001303 0.21 0  1.100000000001302 0.21 0  1.075000000001145 0.21 0  1.050000000001136 0.21 0  1.025000000000966 0.21 0  1.000000000000931 0.21 0  0.9750000000008732 0.21 0  0.9500000000008135 0.21
[...]
<PointData  Scalars="pressure"> 
<DataArray  type="Float64"  Name="pressure"  format="ascii">-7.9515850575521774e-01  -6.9380583630254877e-01  -7.7992169074771267e-01  -1.0892807062848284e+00  -1.0685080974027701e+00  -8.4373102338779260e-01  4.4988375394593666e-01  9.7271991358715768e-02  0.0000000000000000e+00  0.0000000000000000e+00  2.3233870129966042e-01  5.0838556132343460e-01  -7.3024313921088735e-01  -6.9702074129399183e-01  -1.1295116614516132e+00  -9.6905800161730327e-01  -7.8363227437447247e-01  -7.9835170719060145e-01  -8.0036549682509250e-01  -7.9043156394946490e-01  -7.6707692925792115e-01  -7.2682919715192806e-01  -6.7236602921062605e-01  -6.0402400460596284e-01  -5.1768267567972648e-01  -4.1419945671279490e-01  -2.9658812694755443e-01  -1.6924885871980999e-01  -2.9953118380104664e-02  1.2477061676821392e-01  2.8223143979355980e-01  4.4972838599386267e-01  6.1780223319201377e-01  7.8377575531515897e-01  9.5458746489883128e-01  1.1126187825963292e+00  1.2708657231338691e+00  1.4150174710153631e+00  1.5469780198031198e+00  1.6668176972756572e+00  1.7678654115309582e+00  1.8507703507662352e+00  1.9150179111308034e+00  1.9599541165653227e+00  1.9792740893931904e+00  1.9786334586041139e+00  1.9561173560916536e+00  1.9105397391702659e+00  1.8447974181652280e+00  1.7574928065929980e+00  1.6528564662653151e+00  1.5327788719103270e+00  1.3933636720441056e+00  1.2451266476665059e+00  1.0826081922281872e+00  9.1129823111320185e-01  7.3573053121819898e-01  5.5520774478038659e-01  3.7752846740829382e-01  2.0050510898696899e-01  2.1913047607667824e-02  -1.3741019789810538e-01  -3.0123657208754340e-01  -4.4639844674484791e-01  -5.8113512381320875e-01  -7.0399048765757766e-01  -8.1311659677369585e-01  -9.0277258177097763e-01  -9.8303585552567796e-01  -1.0403486213267992e+00  -1.0886059130373880e+00  -1.1171149322293676e+00  -1.1333419849114112e+00  -1.1356918476205982e+00  -1.1266934018314814e+00  -8.3479503731600824e-01  -7.9859484804257908e-01  -7.6050986936366105e-01  -7.2272359763304383e-01  -6.8749193477070958e-01  -6.5494841304862850e-01  -6.2548714739587274e-01  -5.9911033843593664e-01  -5.7571777991556516e-01  -5.5542614746985874e-01  -5.3764098707221930e-01  -5.2303267499910466e-01  -5.1120498303568374e-01  -5.0148104776336444e-01  -4.9397304656381580e-01  -4.8802109823283074e-01  -4.8366490447927191e-01  -4.7976409903563355e-01  -4.7631367618877374e-01  -4.7280524770243598e-01  -4.6851332014206831e-01  -4.6382867106397957e-01  -4.5808687187012515e-01  -4.5136263724165770e-01  -4.4417158125127182e-01  -4.3575769569645928e-01  -4.2728856887939382e-01  -4.1833645813185538e-01  -4.0960935553959416e-01  -4.0138895038346617e-01  -3.9380182112290624e-01  -3.8729051363629630e-01  -3.8215256372565548e-01  -3.7792014784769629e-01  -3.7530674159755872e-01  -3.7380905076416376e-01  -3.7345143664501718e-01  -3.7407326741834002e-01  -3.7575104035016249e-01  -3.7812986388024156e-01  -3.8125949464475495e-01  -3.8516283633133158e-01  -3.8978669448403452e-01  -3.9506120852932186e-01  -4.0115256534942800e-01  -4.0824250888066271e-01  -4.1633434285664922e-01  -4.2590335752873087e-01  -4.3682713482388208e-01  -4.4998484550459156e-01  -4.6511222980196870e-01  -4.8320422693861997e-01  -5.0408826355431524e-01  -5.2841278360172783e-01  -5.5612501120819025e-01  -5.8750552624651542e-01  -6.2229066799808164e-01  -6.6159887444208598e-01  -7.0148690806319480e-01  4.4925699873338143e-01  4.4841028741234967e-01  4.4645733437573765e-01  4.4351666630917053e-01  4.3871460264477441e-01  4.3163163163259827e-01  4.2133459020456510e-01  4.0739962225214771e-01  3.8851717188444135e-01  3.6459414240858823e-01  3.3501616396902306e-01  2.9889445715408264e-01  2.5878077335442445e-01  2.1332346372027439e-01  1.6619511629070635e-01  1.1947436726044029e-01  7.4374524063301362e-02  3.1839421362531158e-02  -3.0999676667615105e-03  -3.3726317361615445e-02  -5.5226040035212046e-02  -7.0204978679012431e-02  -7.6474115821139485e-02  -7.7814154030483168e-02  -6.9579179519407411e-02  -5.4658902859120853e-02  -3.1768258763488620e-02  5.0190373097414975e-04  4.0238413276812504e-02  8.7318600023414614e-02  1.4170139991277339e-01  1.9562710837495256e-01  2.4652963648432882e-01  2.8704302108091506e-01  3.1239026693539040e-01  3.1823481035418172e-01  3.0052857592253535e-01  2.6396220602847015e-01  2.1225325432116779e-01  1.5881555872294442e-01  1.2097418793241987e-01  8.6668584455083034e-02  8.3190462769884163e-02  7.9855375639811196e-02  7.6830429817891760e-02  8.2099400949488741e-02  1.0244847884872459e-01  1.3771337772960382e-01  1.7796888113870804e-01  2.1499790502313618e-01  2.3847134689024102e-01  2.4903090259289865e-01  2.4489470789965789e-01  2.2866386059065075e-01  2.0595125898808078e-01  1.7696659055892086e-01  1.4264150350161223e-01  1.0414826577863567e-01  6.3745839453151903e-02  2.3172092597790583e-02  -7.2706227121174727e-03  -1.3068876568554079e-02  1.0044156672377420e-02  5.9534368396144517e-02  1.1969771418808667e-01  1.7082785924613256e-01  2.1108269992754619e-01  2.2993250550207719e-01  2.2910825383638070e-01  2.0725136247536124e-01  1.7167184933180094e-01  1.2553311604496559e-01  7.1234161018751171e-02  1.9911590702702191e-02  -1.9837558110167748e-02  -4.5036843625720982e-02  -4.3953525828221304e-02  -2.6541962742167614e-02  6.8844971509091849e-04  3.7727858612918719e-02  7.3152801764616290e-02  1.0204816677141730e-01  1.2256994053060925e-01  1.3006586136505244e-01  1.2513391639204408e-01  1.0714034912839590e-01  8.0719774021930493e-02  4.6875208126566703e-02  1.0854111715053291e-02  -2.4349741176676175e-02  -5.3422621103251015e-02  -7.1132141643210342e-02  -7.6980415862986235e-02  -7.1795866188609114e-02  -5.7998892082425993e-02  -4.0238008831963566e-02  -2.1955591352814281e-02  -8.4878597599837100e-03  0.0000000000000000e+00  0.0000000000000000e+00  0.0000000000000000e+00  0.0000000000000000e+00  0.0000000000000000e+00  0.0000000000000000e+00  0.0000000000000000e+00  0.0000000000000000e+00  0.0000000000000000e+00  0.0000000000000000e+00  0.0000000000000000e+00  0.0000000000000000e+00  0.0000000000000000e+00  0.0000000000000000e+00  0.0000000000000000e+00  0.0000000000000000e+00  1.9105293540134183e-02  4.0839842862003262e-02  6.5263214343494011e-02  8.7597831818419417e-02  1.0285477329051761e-01  1.1098846802443127e-01  1.1004902652742153e-01  9.8858720246833162e-02  8.0311516187491439e-02  5.7137496546646550e-02  2.8622661705171092e-02  3.2075073420747397e-03  -1.8920631258755198e-02  -3.2552301674154314e-02  -3.2778458805488304e-02  -1.9864157900881915e-02  6.9901906566604806e-03  4.2020248796688128e-02  8.4380178778688253e-02  1.2313465622711212e-01  1.5464536750860602e-01  1.7564619969912287e-01  1.8126012856379528e-01  1.6944537019002212e-01  1.4542031316562137e-01  1.0492772499793986e-01  5.6368021423621378e-02  9.6083250627549219e-03  -2.5470727789512600e-02  -3.5381422295471393e-02  -1.8122554897234799e-02  2.2587029168855407e-02  7.2398713376815318e-02  1.2044146082891236e-01  1.6589084416683145e-01  2.0078898878710061e-01  2.3054585421730658e-01  2.4745481811711947e-01  2.4660473826986540e-01  2.2519876939918801e-01  1.8349300723473763e-01  1.2707126200523633e-01  7.5393449448535016e-02  3.9101748210309054e-02  3.1630234150573214e-02  3.9206829586619148e-02  6.4984358457841507e-02  9.4151930189987507e-02  1.2395189554236354e-01  1.5219250064535361e-01  1.7626730221299067e-01  1.9942751291956623e-01  2.2171335249598553e-01  2.4221198144548120e-01  2.5640004005046385e-01  2.6198409824270702e-01  2.5499954865450297e-01  1.9824682807319852e-01  1.5744201247040632e-01  1.0760229554774525e-01  6.0753827605178522e-02  1.8605284072994357e-02  -9.4902055463328503e-03  -2.7561288080164555e-02  -2.4857081434611017e-02  -1.1595547461025847e-02  1.0296437330825902e-02  3.3079596531295746e-02  5.4258134776014107e-02  6.8365832933696524e-02  7.8102820317376226e-02  8.4488359545304287e-02  8.8032647336624206e-02  9.0862117387720931e-02  9.4312052520754489e-02  1.0037318839424375e-01  1.1001235329256362e-01  1.2315255533139467e-01  1.4183150571292041e-01  1.6555375374343825e-01  1.9313011212459016e-01  2.2516237614760409e-01  2.5949731066106235e-01  2.9458209875436547e-01  3.2945850289878464e-01  3.6209413436908017e-01  3.9193725743636859e-01  4.1745944438723576e-01  4.3962807145373495e-01  4.5739592768349879e-01  4.7139313967392393e-01  4.8268785597694447e-01  4.9087434293287990e-01  4.9723202032497771e-01  5.0159893328953065e-01  5.0464452119877967e-01  5.0655930865270016e-01  5.0767697305393267e-01  5.0826231709351932e-01  5.0921259065289737e-01  5.1256220735774194e-01  5.1938276472700762e-01  5.3048205117475444e-01  5.4660605894294956e-01  5.6783706548127999e-01  5.9398586636053685e-01  6.2447569200785658e-01  6.5837527717265731e-01  6.9356976041191210e-01  7.2854264965429438e-01  7.6042754656567324e-01  7.8644755876275585e-01  8.0512246395325771e-01  8.1488462394837191e-01  8.1176274383748315e-01  7.9891355947469966e-01  7.7577723690930533e-01  7.4404528202144371e-01  7.0723194481818874e-01  6.6634197359901415e-01  6.2533266721394432e-01  5.8568503563451602e-01  5.5003082251921442e-01  5.1923214129892425e-01  4.9431084880263132e-01  4.7544481760334339e-01  4.6231611939612699e-01  4.5465015108396806e-01  4.5060707108794290e-01  4.4973789526365926e-01  9.2505670350367150e-02  7.8876263437026597e-02  6.2974574311118692e-02  5.8033809367623167e-02  5.7076937841169344e-02  5.2435200488337275e-02  3.9200021318230860e-02  3.0827060749550557e-02  4.1718975821051690e-02  8.9855215788843951e-02  1.4873302424396539e-01  2.0011035469368954e-01  2.2208346875216772e-01  2.3176717258070906e-01  2.3690395944092443e-01  2.3269268169722557e-01  -3.1647702367119702e-02  -4.3061909582429433e-02  -3.6668312082925460e-02  -2.3596716892180285e-02  5.6456111219515805e-02  -6.0761597601232266e-02  -7.8771552241031745e-02  5.6058204632707158e-02  -1.4339208037548802e-02  1.8749899693130831e-01  1.9732163192674407e-01  9.0639286413476600e-02  -5.4168608157828875e-02  1.1598277609255664e-01  2.1670187833548743e-01  -1.1178972821954103e-01  -1.2614445679346384e-01  2.4484968949045871e-01  -9.9947263622180954e-02  1.3444600681347441e-01  6.1909194492860828e-03  6.1426127218017573e-02  -8.6217846512999852e-05  -1.2676131688745215e-01  -7.1602199070186862e-02  1.3071280686609799e-01  -5.6691138087657196e-02  2.0355261970410707e-01  2.1157535517607740e-02  -3.0674198231202456e-02  1.8192628481680639e-01  -7.5675680433425763e-02  1.7455105722319647e-01  -3.3923273052338984e-02  -7.8754823509833149e-02  -1.8244838541822621e-02  -2.0688316593463228e-02  2.0899390495124748e-01  -1.4430098891412087e-03  -8.1981087329799363e-03  1.1785768969436146e-01  -1.1201189555022958e-02  2.8648701460836690e-02  1.5893352095745067e-01  1.9557056432548822e-01  9.1841707602310738e-02  7.7534748653062868e-02  -1.1814763165930751e-01  6.9108467470451088e-02  6.7847771837025311e-02  2.7966463703939654e-01  -4.4910593544931085e-02  2.0398927525457456e-02  -6.6574076424163436e-02  8.6900164820729486e-02  -8.2706937170972911e-02  -4.0021226853046446e-02  5.5364504583310187e-02  5.4751620787120474e-02  2.0536584290657961e-01  2.8011552505379173e-01  -7.9409395126696342e-02  -1.4418571558991944e-01  -1.0232643177860991e-01  1.9458766023540003e-01  1.1660002942700023e-01  1.3275862932112274e-03  -2.9532868677537103e-02  4.1769261440079038e-02  9.3322498633857026e-02  2.1843130068706049e-01  3.9511982750480019e-02  3.4098276224178110e-02  -4.5687652802926984e-02  1.2378883119170525e-01  -8.0834971066230457e-02  -1.2839160766862114e-02  -1.2973413113285309e-01  -1.8659940168225603e-01  1.1203855447703420e-01  7.8389601010768681e-02  2.4698527967292072e-01  -1.8507634995880676e-01  6.5091668952920984e-02  7.3042790177945627e-02  1.2293330431222417e-01  -1.4451676736177604e-01  1.1417694849462559e-01  2.2547742393840203e-02  2.5985776671637040e-01  1.6783688439057720e-01  1.5734299612680372e-01  8.9690351965274737e-02  -9.2106380838783891e-02  5.0698922934332306e-02  -8.5620654141228027e-03  -8.3491957211128467e-03  -7.2588195499833391e-02  4.1272334649421698e-02  -4.1365739592614181e-04  1.9625041269977167e-01  1.1466759577799271e-01  -7.4464227402001593e-02  2.5425981103410683e-01  -4.5733113647558393e-03  -1.3805517843704820e-01  1.1766543268561228e-01  1.5858645646372269e-02  1.9171818311325559e-01  -2.6358402796791885e-01  1.3415268291954496e-01  1.3255292596347846e-02  1.2211807295932953e-01  -5.5226236668924830e-02  -2.2011373962842869e-02  1.2327462550766327e-01  -3.4476359306553806e-03  8.2614979841389609e-03  3.0968914357143652e-02  -9.6761064801307306e-03  7.6479736655255301e-02  8.2337934612819550e-03  -7.4266568215609924e-02  2.3925559754969783e-01  2.3470156427061542e-01  1.6086213706848970e-01  -2.2041345361360454e-01  6.1144287789716950e-02  -4.9364375966790670e-02  -2.3681969823349747e-02  4.7932207699313126e-02  -1.7799976755894176e-02  1.2338689989858648e-01  -4.9267986529386402e-02  9.7296520174854656e-02  2.4352469074344171e-01  8.3010252589051564e-02  1.4133065715006329e-01  1.3327912553761857e-02  3.6133660498343094e-02  2.7381897560875579e-01  5.9886030057444653e-02  -1.9467210134589533e-02  2.2446782808790276e-02  1.4529432925842189e-01  1.4641256294197436e-01  -1.4467408931856923e-01  1.8482765112094357e-01  1.2354067418199373e-02  6.6941900165687657e-02  2.1436341296811917e-01  -2.7735165845519491e-03  -1.0153231415772020e-01  1.1894254885695073e-01  -4.5001284215758545e-02  2.3172983043084912e-02  -9.8880129842108172e-02  -5.8214103137632506e-02  -2.0745533089361395e-03  2.4929035704653318e-01  -7.1735634764291498e-02  8.0618727531052425e-02  7.9855020289142833e-02  -4.9903402441364153e-02  -1.9959442519150886e-02  -3.9168511230409715e-02  -2.2600747743812481e-02  2.6769392696562148e-02  6.8309838805745357e-02  -1.6431593634116493e-01  -6.3236408246584302e-02  1.4058587131119973e-01  -6.2630593584758157e-02  1.1632278414494029e-01  -1.1924717541356310e-01  -5.1012511296453858e-02  -6.0546506347591213e-02  3.0820099504197796e-06  6.5126876140775669e-02  8.6707884757596179e-03  1.8188029921499799e-01  1.0686764210402529e-01  -2.1334209640847338e-01  -1.2702305472756906e-01  1.3739927398449589e-01  8.0927500424970752e-02  3.0559243626065772e-02  2.7065374150371979e-01  -1.4958409061472059e-02  2.4975775710087189e-02  1.4846596013187380e-01  1.3634654519317380e-01  9.0834747346282954e-02  2.1080052989969839e-01  3.5926170719962798e-02  -2.5577274827563487e-02  1.3096061754578228e-01  1.9816192361873661e-03  2.2579141056084734e-01  5.5249004886639842e-02  1.6663313849723457e-01  -7.3904067666388129e-02  -2.6061562190568549e-01  6.9355586543684705e-02  1.3728322786883673e-01  5.9663393677363223e-02  1.9143536726279659e-01  1.0723041140701849e-01  1.8186026796043800e-01  -1.1634919995118100e-02  -6.3861718719661106e-02  1.7795462611714061e-01  -2.3618781657373182e-02  -7.5182314219122373e-02  -1.4841590756260131e-01  3.4924887394919307e-02  -7.3901669907930248e-02  8.5454739003519131e-02  2.5943151694734629e-01  2.5128319087743872e-01  2.6041231823312677e-01  1.1273435594778539e-01  4.2349487596927832e-02  1.2710854114883149e-02  -2.5344331399204174e-02  8.9584739833538610e-02  7.7209781141840420e-02  3.0913246536277679e-04  1.1452422811723021e-02  2.2878620023342292e-02  -4.6496469101007867e-02  -8.7085260267633899e-02  -3.1675643053384606e-02  3.3558361020674006e-02  2.5533568774967591e-01  3.2448309435583980e-02  6.4469515604192354e-02  -1.5316929068731022e-01  2.4849230293668037e-01  1.3048815142825518e-01  2.3789843097655264e-01  -1.0180124471676920e-01  2.1515052389046405e-01  -5.0579128396386529e-02  4.2462240882005294e-02  8.1862192255642487e-04  3.6218027133191562e-02  2.4167371697043441e-04  -1.0741744615075056e-01  -9.8170445017095154e-02  2.2567846716478573e-01  1.4396878513643654e-01  -7.8318876081774097e-02  1.0679948600702907e-01  2.6211012157996434e-02  5.6354005440592776e-02  2.2921374442677656e-02  1.2144714227840253e-01  -4.4694334260003868e-02  7.8212175365042644e-02  6.5868131734582716e-03  -1.8971013219469945e-03  2.7138537453535339e-01  8.1036056253766683e-02  1.4073410936649045e-01  -1.5975080971806729e-01  3.2289033566741336e-02  -4.7087609529725086e-02  2.6193314159601183e-01  1.3917521722641996e-01  1.6657043140394717e-01  -1.1225129101657540e-01  -9.3370052434308751e-02  1.2955344900804624e-02  1.2822810474003354e-01  -3.7202890723129489e-02  1.2688634968730778e-01  1.3470354709849740e-02  1.5328186752882808e-01  9.0005243552420844e-02  -8.8825228576115328e-02  8.8507749502892058e-02  5.1407735122352090e-02  -8.0931149460494747e-02  2.7035599316506193e-02  2.7393232715702620e-01  6.3389291858526903e-02  -1.0560369412116234e-02  -4.6728057143650442e-02  7.6801487309648198e-02  1.0832332705436869e-01  -3.3348654563625575e-02  -3.3819556301557988e-02  1.6746560151635134e-01  -1.4037534617766164e-02  -1.1370635283619501e-01  1.3733546034896008e-01  2.2188402694901291e-01  4.4778174882654148e-02  -1.0830550266326885e-02  -2.3482830553385112e-02  -6.9693412538795962e-02  8.8949394274348434e-02  -8.7411938756404531e-02  2.0210342748261417e-01  2.5642635067923270e-01  5.2434870195323620e-02  2.2907736694222004e-02  -1.0312088067734820e-01  -8.5630698035191952e-02  1.5710894666827172e-01  7.5238174508557035e-02  2.5491205247900073e-01  -1.3363094318432162e-01  -6.6880164093894676e-02  9.7275417886017429e-02  1.6623901676973606e-02  2.3169129926836768e-01  -6.5785892104961172e-03  1.0131468394830764e-01  -2.5951231125177322e-02  -2.4804905686279713e-01  1.0461083455025165e-01  2.5713448936803173e-02  7.9257530437555151e-02  2.5807139587752109e-01  -1.8046093438397243e-01  2.0940781329646413e-02  -7.7471462692228404e-02  1.1866041864878571e-01  9.3312432261840553e-03  1.1062308051434440e-01  8.1866922961864486e-02  -5.2684560187850754e-02  -3.0613292648124582e-02  1.2657357187887119e-01  3.5079973734333955e-02  6.8819649441612812e-02  -7.4863714103464957e-02  1.3137121982062258e-01  1.7864741409663898e-01  -5.1666485907242959e-02  8.3270330712105961e-02  5.1582852072761712e-02  -5.5803179219066537e-02  -1.6295131037085692e-01  2.3634961561041148e-01  -1.2567550606737379e-01  1.1208026536540802e-01  6.5121772578715098e-02  4.9625017931446734e-03  1.3144601450962864e-01  9.8155644123832861e-02  2.1941755408650404e-01  5.8533368223133368e-02  1.3289750131045477e-01  4.4293737728676556e-02  -2.0090018958373743e-02  4.1577502557796013e-02  1.4625707782994907e-01  1.6925382714329418e-02  1.8806858943171487e-01  9.7199570285762052e-02  6.2232649664037583e-02  -9.8432855249027079e-04  -3.3645976419393861e-02  -6.6538607769029811e-05  2.5808702723830129e-01  1.0188892969458689e-01  -2.1562999998814758e-01  1.5208713690861827e-03  9.9602770391226531e-02  5.0018771036174445e-03  1.6703113332816441e-01  1.8683090455053677e-01  2.0786073388127518e-01  -8.3576402125225935e-02  -3.1457058137606166e-02  -1.7496686553049184e-01  2.4333585002088762e-01  2.2391984270465976e-01  -5.3557269325470039e-03  -2.1036557909148927e-02  8.3831045811280314e-02  1.1242470584418056e-01  -2.0736653473325900e-02  3.2667796503490290e-02  1.4572593979223258e-01  -1.3241202664234336e-01  1.5137798068661756e-01  -5.5880246666619719e-02  2.0546111501858202e-01  -1.0545437903652394e-01  -2.8414044575222740e-03  -4.6391942118615269e-02  -1.6175795998861844e-02  -1.4611908546138308e-01  1.3871420442335641e-01  5.6382186646478295e-02  -1.1180843884172249e-02  1.8569455604066448e-01  8.5830245863755802e-02  -7.8964246142353534e-02  1.8280180539081115e-01  1.3011153354419983e-01  9.5077192819461847e-03  -4.1940598758612092e-02  -4.6782285080371648e-03  -9.4482873606428555e-02  5.3377737852381882e-02  -8.8644189315238223e-03  -1.0639935838456684e-02  7.5039865077839538e-02  -8.3611099335219582e-02  -2.2992117422833230e-02  2.3331271193578657e-01  8.0735946548078934e-04  2.1533742577945564e-02  -1.7332202412125236e-04  1.7354274063247643e-02  -1.7565473819084888e-03  1.0744069834693410e-02  -1.5708177303310325e-01  4.0