<?xml version="1.0"?>
<VTKFile type="UnstructuredGrid"  version="0.1"  >
<UnstructuredGrid>
<Piece  NumberOfPoints="4826" NumberOfCells="9274">
<Points>
<DataArray  type="Float64"  NumberOfComponents="3"  format="ascii">0.004357787137616029 0.04980973490456689 0  2.448294430073374e-13 0.05 0  -0.004357787137128233 0.04980973490460956 0  -0.004357787137605706 -0.04980973490456778 0  -2.344882876518267e-13 -0.05 0  0.004357787137138513 -0.04980973490460866 0  -0.2 -0.2 0  0.55 -0.2 0  2 -0.2 0  2 0.21 0  0.55 0.21 0  -0.2 0.21 0  0.002180969368511386 0.0499524110790822 0  -0.002180969368010819 0.04995241107910407 0  -0.002180969368502513 -0.04995241107908259 0  0.002180969368021486 -0.0499524110791036 0  -0.006814597157868607 0.04953343583455493 0  -0.009254746151924908 0.04913603233537922 0  -0.01167226819248128 0.04861849601995923 0  -0.01406125267347753 0.04798209221420657 0  -0.01641585876037609 0.04722837686348521 0  -0.01873032967049142 0.04635919272846228 0  -0.02099900674774951 0.04537666487973717 0  -0.0232163432975249 0.04428319550226104 0  -0.0253769181477669 0.04308145802223435 0  -0.02747544890327456 0.04177439057082161 0  -0.02950680486062692 0.04036518880070902 0  -0.03146601955223609 0.03885729807305569 0  -0.0333483028888871 0.03725440503391573 0  -0.03514905287103829 0.03556042860074884 0  -0.03686386684027007 0.03377951038104073 0  -0.0384885522433417 0.0319160045464898 0  -0.04001913688258778 0.02997446718746979 0  -0.04145187862754741 0.0279596451738408 0  -0.04278327456411638 0.0258764645493049 0  -0.04401006955882648 0.02373001848771415 0  -0.04512926421732728 0.02152555484076227 0  -0.04613812221762188 0.01926846330748221 0  -0.04703417700009761 0.01696426225697686 0  -0.04781523779803292 0.0146185852365256 0  -0.04847939499380464 0.01223716719811699 0  -0.04902502478771633 0.009825830477053876 0  -0.04945079316803359 0.007390470556897103 0  -0.04975565917250895 0.004937041655599784 0  -0.04993887743343513 0.002471542168028815 0  -0.05000000000000002 4.319617580295088e-13 0  -0.04993887743347691 -0.002471542167184487 0  -0.04975565917259078 -0.004937041654775128 0  -0.0494507931681559 -0.007390470556078771 0  -0.04902502478787634 -0.00982583047625548 0  -0.048479394994003 -0.01223716719733118 0  -0.04781523779827011 -0.01461858523574979 0  -0.04703417700037211 -0.01696426225621582 0  -0.04613812221792003 -0.01926846330676828 0  -0.04512926421765873 -0.0215255548400674 0  -0.0440100695591652 -0.02373001848708596 0  -0.04278327456447995 -0.0258764645487038 0  -0.04145187862791943 -0.02795964517328926 0  -0.04001913688296869 -0.02997446718696123 0  -0.03848855224374843 -0.03191600454599933 0  -0.03686386684070041 -0.03377951038057109 0  -0.03514905287149575 -0.03556042860029668 0  -0.03334830288936536 -0.03725440503348761 0  -0.03146601955271191 -0.03885729807267038 0  -0.02950680486109357 -0.0403651888003679 0  -0.02747544890375341 -0.04177439057050667 0  -0.02537691814821718 -0.0430814580219691 0  -0.02321634329799415 -0.04428319550201502 0  -0.02099900674823039 -0.04537666487951462 0  -0.01873032967097447 -0.04635919272826711 0  -0.0164158587608675 -0.0472283768633144 0  -0.01406125267397827 -0.04798209221405982 0  -0.01167226819300015 -0.04861849601983465 0  -0.00925474615244812 -0.04913603233528067 0  -0.006814597158347743 -0.04953343583448901 0  0.006814597157865879 -0.04953343583455529 0  0.009254746151927097 -0.0491360323353788 0  0.01167226819248615 -0.04861849601995805 0  0.01406125267347329 -0.04798209221420779 0  0.01641585876037412 -0.04722837686348589 0  0.01873032967049753 -0.04635919272845981 0  0.02099900674775168 -0.04537666487973616 0  0.02321634329751479 -0.04428319550226633 0  0.02537691814775486 -0.04308145802224143 0  0.02747544890326525 -0.04177439057082774 0  0.02950680486061762 -0.04036518880071581 0  0.03146601955222702 -0.03885729807306303 0  0.0333483028888813 -0.03725440503392092 0  0.03514905287103634 -0.03556042860075076 0  0.03686386684026893 -0.03377951038104196 0  0.03848855224333972 -0.03191600454649218 0  0.04001913688258468 -0.02997446718747393 0  0.04145187862754592 -0.02795964517384301 0  0.04278327456411439 -0.02587646454930818 0  0.04401006955882308 -0.02373001848772046 0  0.04512926421732501 -0.02152555484076704 0  0.04613812221761816 -0.01926846330749109 0  0.04703417700009521 -0.01696426225698355 0  0.04781523779803072 -0.01461858523653281 0  0.04847939499380377 -0.01223716719812044 0  0.04902502478771547 -0.009825830477058137 0  0.04945079316803235 -0.007390470556905473 0  0.04975565917250727 -0.004937041655616693 0  0.0499388774334346 -0.002471542168039619 0  0.05 -4.403257272689309e-13 0  0.04993887743347755 0.002471542167171875 0  0.04975565917259197 0.004937041654763091 0  0.04945079316815711 0.007390470556070629 0  0.04902502478787914 0.009825830476241509 0  0.04847939499400326 0.01223716719733013 0  0.04781523779826526 0.01461858523576567 0  0.0470341770003617 0.01696426225624468 0  0.04613812221791593 0.01926846330677807 0  0.04512926421764892 0.02152555484008794 0  0.04401006955917259 0.02373001848707224 0  0.04278327456448917 0.02587646454868855 0  0.04145187862794129 0.02795964517325684 0  0.04001913688300011 0.02997446718691929 0  0.03848855224377164 0.03191600454597132 0  0.03686386684071396 0.03377951038055631 0  0.03514905287149344 0.03556042860029895 0  0.03334830288935025 0.03725440503350112 0  0.03146601955270811 0.03885729807267346 0  0.0295068048611069 0.04036518880035816 0  0.02747544890376348 0.04177439057050004 0  0.02537691814825449 0.04308145802194713 0  0.02321634329801946 0.04428319550200175 0  0.02099900674825754 0.04537666487950205 0  0.01873032967100249 0.04635919272825579 0  0.0164158587608822 0.04722837686330929 0  0.01406125267398022 0.04798209221405924 0  0.01167226819298624 0.04861849601983799 0  0.009254746152419701 0.04913603233528602 0  0.006814597158349477 0.04953343583448876 0  -0.187519667561546 -0.2 0  -0.1748316574821168 -0.2 0  -0.1619325192212862 -0.2 0  -0.148818726846035 -0.2 0  -0.1354867192353635 -0.2 0  -0.1219328603917423 -0.2 0  -0.1081534592978099 -0.2 0  -0.09414476589796635 -0.2 0  -0.07990295884356099 -0.2 0  -0.06542416303692469 -0.2 0  -0.05070442887227664 -0.2 0  -0.03573975841838681 -0.2 0  -0.02052606515274366 -0.2 0  -0.005059208927244263 -0.2 0  0.01066502121897589 -0.2 0  0.0266509074223695 -0.2 0  0.04290280916834216 -0.2 0  0.05942514657702952 -0.2 0  0.0762224259839136 -0.2 0  0.09329921648059353 -0.2 0  0.110660175036538 -0.2 0  0.1283100227830172 -0.2 0  0.1462535753141169 -0.2 0  0.1644957199166657 -0.2 0  0.1830414159977267 -0.2 0  0.2018957233573105 -0.2 0  0.2210637763821503 -0.2 0  0.2405507887204602 -0.2 0  0.260362079066015 -0.2 0  0.2805030358280229 -0.2 0  0.3009791451426284 -0.2 0  0.3217959904068706 -0.2 0  0.3429592343744705 -0.2 0  0.3644746437000989 -0.2 0  0.3863480795092348 -0.2 0  0.4085854991020529 -0.2 0  0.4311929577241948 -0.2 0  0.4541766164908302 -0.2 0  0.4775427321916551 -0.2 0  0.5012976684604897 -0.2 0  0.5254479006641548 -0.2 0  0.5749999999999358 -0.2 0  0.5999999999998969 -0.2 0  0.6249999999998155 -0.2 0  0.6499999999998081 -0.2 0  0.6749999999997656 -0.2 0  0.6999999999997664 -0.2 0  0.7249999999997357 -0.2 0  0.7499999999996745 -0.2 0  0.7749999999995796 -0.2 0  0.7999999999995281 -0.2 0  0.8249999999994608 -0.2 0  0.8499999999994138 -0.2 0  0.8749999999993301 -0.2 0  0.8999999999992546 -0.2 0  0.9249999999991836 -0.2 0  0.9499999999990955 -0.2 0  0.9749999999990373 -0.2 0  0.9999999999989423 -0.2 0  1.024999999998847 -0.2 0  1.049999999998752 -0.2 0  1.074999999998672 -0.2 0  1.099999999998649 -0.2 0  1.124999999998554 -0.2 0  1.149999999998545 -0.2 0  1.174999999998451 -0.2 0  1.199999999998416 -0.2 0  1.224999999998348 -0.2 0  1.249999999998288 -0.2 0  1.274999999998288 -0.2 0  1.299999999998246 -0.2 0  1.324999999998369 -0.2 0  1.349999999998394 -0.2 0  1.37499999999845 -0.2 0  1.399999999998551 -0.2 0  1.424999999998531 -0.2 0  1.449999999998684 -0.2 0  1.474999999998642 -0.2 0  1.499999999998804 -0.2 0  1.524999999998773 -0.2 0  1.549999999998885 -0.2 0  1.574999999999013 -0.2 0  1.599999999999079 -0.2 0  1.624999999999119 -0.2 0  1.649999999999211 -0.2 0  1.674999999999224 -0.2 0  1.699999999999321 -0.2 0  1.724999999999342 -0.2 0  1.749999999999427 -0.2 0  1.774999999999474 -0.2 0  1.799999999999533 -0.2 0  1.824999999999605 -0.2 0  1.849999999999639 -0.2 0  1.874999999999735 -0.2 0  1.899999999999745 -0.2 0  1.924999999999841 -0.2 0  1.949999999999869 -0.2 0  1.974999999999947 -0.2 0  2 -0.1758823529412649 0  2 -0.1517647058824698 0  2 -0.12764705882371 0  2 -0.103529411764951 0  2 -0.07941176470620959 0  2 -0.05529411764745706 0  2 -0.03117647058865336 0  2 -0.007058823529918185 0  2 0.01705882352889865 0  2 0.04117647058779714 0  2 0.06529411764668486 0  2 0.08941176470558332 0  2 0.1135294117644398 0  2 0.137647058823337 0  2 0.1617647058822356 0  2 0.185882352941134 0  1.975000000000015 0.21 0  1.950000000000055 0.21 0  1.925000000000061 0.21 0  1.90000000000011 0.21 0  1.875000000000116 0.21 0  1.850000000000166 0.21 0  1.825000000000172 0.21 0  1.800000000000206 0.21 0  1.775000000000227 0.21 0  1.750000000000322 0.21 0  1.725000000000369 0.21 0  1.700000000000375 0.21 0  1.675000000000454 0.21 0  1.650000000000517 0.21 0  1.62500000000057 0.21 0  1.600000000000658 0.21 0  1.575000000000687 0.21 0  1.550000000000789 0.21 0  1.525000000000806 0.21 0  1.500000000000905 0.21 0  1.475000000001007 0.21 0  1.450000000001109 0.21 0  1.42500000000121 0.21 0  1.400000000001312 0.21 0  1.375000000001406 0.21 0  1.350000000001428 0.21 0  1.32500000000153 0.21 0  1.300000000001554 0.21 0  1.275000000001647 0.21 0  1.250000000001522 0.21 0  1.225000000001572 0.21 0  1.200000000001437 0.21 0  1.175000000001446 0.21 0  1.15000000000137 0.21 0  1.125000000001303 0.21 0  1.100000000001302 0.21 0  1.075000000001145 0.21 0  1.050000000001136 0.21 0  1.025000000000966 0.21 0  1.000000000000931 0.21 0  0.9750000000008732 0.21 0  0.9500000000008135 0.21
[...]
<PointData  Scalars="pressure"> 
<DataArray  type="Float64"  Name="pressure"  format="ascii">-7.9268797143606307e-01  -1.1511921388893049e+00  -1.1446215789317609e+00  -7.1683026863875776e-01  -6.0188376756333950e-01  -7.7638996910477709e-01  5.5706859264988595e-01  2.6722908967420483e-01  0.0000000000000000e+00  0.0000000000000000e+00  8.4735596204749936e-02  4.2789277247449503e-01  -9.9289702921473233e-01  -1.2251886022852485e+00  -5.9000737398216796e-01  -6.6898979543607251e-01  -1.1835277887481976e+00  -1.1901982535967057e+00  -1.1816294270698666e+00  -1.1619017596001611e+00  -1.1270474277064162e+00  -1.0752665581510650e+00  -1.0090829250051871e+00  -9.2880362081459089e-01  -8.3015110464544495e-01  -7.1401476153156007e-01  -5.8327556552128357e-01  -4.4372334268534175e-01  -2.9159002719040916e-01  -1.2303760574375500e-01  4.7515582539998318e-02  2.2930184251900637e-01  4.1138398737882942e-01  5.9168280797423145e-01  7.7792342843196871e-01  9.5085964448826965e-01  1.1254383696129555e+00  1.2859124331320531e+00  1.4346034456764876e+00  1.5718573529302236e+00  1.6905800462965972e+00  1.7912678918596794e+00  1.8740106177488156e+00  1.9375764178326054e+00  1.9754883941146826e+00  1.9936003011404495e+00  1.9898281941469069e+00  1.9629609159365480e+00  1.9155883983109379e+00  1.8466604095794537e+00  1.7598536904278423e+00  1.6570296427456492e+00  1.5348312485870927e+00  1.4029425023315558e+00  1.2566753643665656e+00  1.1011679396722065e+00  9.4074157433750782e-01  7.7499531053422643e-01  6.1139320083585313e-01  4.4805537194006867e-01  2.8353029907096089e-01  1.3618614543911686e-01  -1.3754355587083671e-02  -1.4687485100492567e-01  -2.6920436681552473e-01  -3.7982900337910880e-01  -4.7665940690840397e-01  -5.5465041947718130e-01  -6.2286788487964262e-01  -6.6917073351729783e-01  -7.0637990852838151e-01  -7.2429302446767529e-01  -7.3140536051689975e-01  -7.2403850263530967e-01  -7.0882199995563877e-01  -6.8012545257725676e-01  -6.3527444347993589e-01  -5.9607338650179620e-01  -5.5948990205488591e-01  -5.2814826411175997e-01  -5.0010337467512800e-01  -4.7588041574638051e-01  -4.5473529764658771e-01  -4.3663709478954688e-01  -4.2119430350988929e-01  -4.0776750486218893e-01  -3.9660789921657097e-01  -3.8724537763835093e-01  -3.7899685877943667e-01  -3.7209975393537170e-01  -3.6615886924220625e-01  -3.6151181214921185e-01  -3.5751850031010340e-01  -3.5454832709711637e-01  -3.5202513194744067e-01  -3.5096659518792034e-01  -3.5028938849455060e-01  -3.5077443180089379e-01  -3.5213717863324873e-01  -3.5460632709274309e-01  -3.5838364808725176e-01  -3.6333269037735283e-01  -3.6961172381651286e-01  -3.7705765715098200e-01  -3.8557449797021259e-01  -3.9511030731105867e-01  -4.0489078896180886e-01  -4.1519047541337317e-01  -4.2532395495419489e-01  -4.3490033629778196e-01  -4.4370319985358414e-01  -4.5189688414736040e-01  -4.5874419263702371e-01  -4.6488277029236391e-01  -4.7008897551456413e-01  -4.7438386459360782e-01  -4.7871069374424940e-01  -4.8290353137431941e-01  -4.8757666737170424e-01  -4.9337849722774313e-01  -5.0082025900233518e-01  -5.1016150640394420e-01  -5.2204704313730654e-01  -5.3635947097415893e-01  -5.5370896354365173e-01  -5.7373863492603128e-01  -5.9698349447924959e-01  -6.2326493832171681e-01  -6.5263632812116090e-01  -6.8509592050088219e-01  -7.2000289291251029e-01  -7.5657905981729268e-01  -7.9257546459334238e-01  -8.3235408234325114e-01  5.5637305086396416e-01  5.5537847624548986e-01  5.5330471955069838e-01  5.5035321915261859e-01  5.4584186112939381e-01  5.3953313337547848e-01  5.3072326444246143e-01  5.1909697190101145e-01  5.0357123764914491e-01  4.8399979938278004e-01  4.5966972022871122e-01  4.2972241527719873e-01  3.9600954336541627e-01  3.5743224477261515e-01  3.1682853995308558e-01  2.7595768577001073e-01  2.3626173741334419e-01  1.9867426357247195e-01  1.6736319768608096e-01  1.3971798476351066e-01  1.1939355910941832e-01  1.0396518683000569e-01  9.3988747551906046e-02  8.6326740092314336e-02  8.2685707346280585e-02  7.9082410606979417e-02  7.4909494580313721e-02  6.6728259351497871e-02  5.5482434734863736e-02  3.8696829779652990e-02  1.5023543528562817e-02  -7.6323348541860476e-03  -2.6325888381158336e-02  -3.1839578717995150e-02  -1.9929695942913751e-02  9.8067068388071922e-03  5.3614036652433611e-02  1.0375316444053377e-01  1.5672983158658779e-01  2.0439995027645766e-01  2.4028582763355735e-01  2.8029129629473820e-01  2.7910271632885569e-01  2.6522374709635921e-01  2.4841091665541176e-01  2.2822427849294588e-01  2.0583574634442892e-01  1.7974383765876820e-01  1.4997963679618984e-01  1.1623081024435607e-01  8.2281442036387459e-02  5.3202164909048257e-02  3.7605418758636461e-02  4.9090819140126488e-02  8.2094551437221039e-02  1.3459548089038681e-01  1.8928458836153472e-01  2.3305034181763604e-01  2.5683758164220338e-01  2.6064312937071149e-01  2.4923872444715461e-01  2.2515863939631486e-01  1.8958043376521289e-01  1.4671389123969902e-01  9.5385092778467517e-02  4.6057996627784661e-02  -1.5446763872919647e-04  -2.5073511646560374e-02  -2.2451850700168627e-02  1.1528126513503923e-02  5.7349548882445346e-02  1.0687567840188619e-01  1.5141762150389873e-01  1.8255074341559799e-01  1.9780673139315050e-01  1.9974394275822338e-01  1.8272134794898107e-01  1.5289533337738653e-01  1.1817664864040832e-01  7.4215883372844446e-02  3.1885184260255127e-02  -1.8508568484039182e-03  -2.4819779318527972e-02  -3.1297767009972263e-02  -2.2668636663664081e-02  -9.7343192494038521e-04  2.6792193227457895e-02  5.7570019444177473e-02  8.6131279765260832e-02  1.1033663062448433e-01  1.2659249035454176e-01  1.3255266663554302e-01  1.2815287856597682e-01  1.1488995994469874e-01  9.3786982694380600e-02  6.8532826038875644e-02  4.1705191820259876e-02  1.9213422130726170e-02  0.0000000000000000e+00  0.0000000000000000e+00  0.0000000000000000e+00  0.0000000000000000e+00  0.0000000000000000e+00  0.0000000000000000e+00  0.0000000000000000e+00  0.0000000000000000e+00  0.0000000000000000e+00  0.0000000000000000e+00  0.0000000000000000e+00  0.0000000000000000e+00  0.0000000000000000e+00  0.0000000000000000e+00  0.0000000000000000e+00  0.0000000000000000e+00  -7.4900879513999498e-04  -7.1808196688434196e-03  -1.9762392000180755e-02  -3.4148114084237367e-02  -4.6901292115431939e-02  -5.6089114693682468e-02  -5.7641141190765494e-02  -4.9060087023975192e-02  -3.0618185669387246e-02  -2.7823212934983284e-03  3.2711019790191469e-02  6.6598038216188940e-02  9.9385607429890763e-02  1.2469234518822536e-01  1.3803642829085502e-01  1.4149829368968833e-01  1.3150592011878548e-01  1.1224169539121052e-01  8.1230340468474826e-02  4.6992443489914472e-02  1.2984750754375714e-02  -1.4858865202768218e-02  -2.7064678818783227e-02  -1.7589750533211140e-02  1.0487844428936114e-02  5.9074267343591128e-02  1.1239378757482944e-01  1.6438008655766650e-01  2.0603454812066804e-01  2.3501540966052281e-01  2.4425832250161317e-01  2.3312501057140725e-01  2.0059133162459980e-01  1.5251437870570303e-01  9.1554832079534271e-02  4.2237594351206713e-02  1.0841165778342167e-02  5.5756553033981587e-03  2.6523049060348948e-02  5.8801661950844547e-02  9.5426664754537732e-02  1.3253824583019713e-01  1.6605153687861626e-01  1.9558648838683820e-01  2.2077430243224669e-01  2.4122419373337148e-01  2.5284525437142202e-01  2.5311899465296883e-01  2.3924542021065304e-01  2.1174138580578647e-01  1.7877039097501368e-01  1.4417484121777066e-01  1.1829894842999561e-01  1.0315034125797960e-01  9.4719075754937196e-02  8.7705719051796152e-02  8.2125267372033087e-02  9.8824023859620164e-02  1.2994048419170476e-01  1.7808559744977651e-01  2.2568924503831481e-01  2.7159843398204275e-01  2.9804625364275311e-01  3.1119326557844240e-01  2.9876691302361458e-01  2.7322161909430481e-01  2.3513126268413517e-01  1.9107156977220258e-01  1.4231787817953664e-01  9.8466116177321913e-02  5.8681055501425487e-02  2.3965519289420183e-02  -1.6472004959616729e-03  -2.0137061891180617e-02  -3.0507486091988157e-02  -3.3001103523401701e-02  -2.7771410462807736e-02  -1.6008535019844040e-02  3.1089009745825505e-03  2.9271414954840196e-02  6.0035454009599254e-02  9.6429612646438304e-02  1.3591302753854761e-01  1.7648080438904276e-01  2.1701230577327973e-01  2.5565282853635651e-01  2.9126658979463732e-01  3.2193205206599884e-01  3.4878326211735999e-01  3.7024510840932157e-01  3.8701218654707736e-01  4.0036496255416049e-01  4.0974868162308098e-01  4.1681043965002929e-01  4.2140728574216346e-01  4.2445983833310830e-01  4.2624943102930651e-01  4.2723714063611190e-01  4.2772846744545934e-01  4.2870110317091281e-01  4.3236505334009029e-01  4.3996063001663727e-01  4.5243355370609151e-01  4.7070461094483801e-01  4.9493286274147180e-01  5.2508856852585539e-01  5.6066606631865679e-01  6.0086295597500428e-01  6.4359790039191778e-01  6.8732717585725656e-01  7.2917020393868870e-01  7.6622642011941211e-01  7.9674906208089546e-01  8.1898365664228112e-01  8.2863589919592884e-01  8.2845016294751594e-01  8.1757166880661680e-01  7.9737462598567443e-01  7.7119701451890110e-01  7.3972109799415919e-01  7.0695863666808378e-01  6.7418931724620546e-01  6.4420560226597756e-01  6.1786078556007618e-01  5.9632939026751919e-01  5.7985424343676595e-01  5.6830593006513652e-01  5.6148950816493726e-01  5.5781965326702942e-01  5.5696652787807943e-01  2.6902563089529241e-01  2.7569360106987295e-01  2.7827057025371921e-01  2.7408654706220681e-01  2.5491343624763302e-01  2.1767852921031000e-01  1.6054106197450632e-01  1.0711931658016983e-01  7.2880060697886023e-02  5.6802384560894412e-02  5.6104921617361192e-02  5.3578488558526885e-02  5.0437504305242090e-02  5.4985924507111199e-02  6.6635776842510042e-02  7.9693875936588360e-02  2.0535904861482299e-02  -1.1120853686248258e-02  -1.3373770985804785e-03  1.2007806139765312e-02  -5.0792885934173533e-02  3.3799837534093879e-02  5.0157896069934954e-02  -7.2622191904970490e-02  1.2610674373184688e-01  -1.6056616270718835e-01  -1.4544515185255704e-02  -2.7324889306914069e-02  2.0111148263268402e-01  -7.0335009040880025e-02  -5.5031774453368730e-02  2.2468799112723539e-01  1.3055030451189079e-01  -8.3092692017525435e-02  2.4956608950356332e-01  -9.0631146630218054e-02  1.6351915447030169e-01  4.5938049788463338e-02  1.3518181720922640e-02  1.8628742254635755e-01  1.3380710636034487e-01  2.5697057224651998e-01  1.3406024040521003e-01  -1.1672694508222230e-01  1.4565581040840559e-02  5.5836741101032911e-04  5.7647125027895582e-03  1.5462959902755363e-01  1.5079925998042770e-01  1.5199761863623693e-01  1.6962870147532935e-01  -1.3740843102851587e-02  -3.5797267162750489e-03  -4.3602844750538938e-02  7.6325723775380015e-03  1.0349305790245350e-02  -8.7371957437251249e-02  4.6223521775260755e-02  -3.1492082696363720e-03  -8.0873109465159812e-02  -6.5961038843422110e-02  -1.0002073384662322e-01  -1.1647110596275172e-01  8.4073082643454311e-02  2.9150348319864861e-01  -1.7465685972855319e-02  7.7410198750005585e-02  7.1408717116135820e-02  7.0421864275670015e-02  2.2043752067157760e-01  2.7467569832751815e-01  2.6974736156659068e-01  1.1016717289479341e-01  4.8824974558609083e-02  2.7121856688726104e-01  -9.6572740158088737e-03  -2.2239786823485316e-02  5.8614010311857700e-02  1.3573104627351590e-01  1.4897672803531725e-01  1.3142606696942133e-01  -1.0285554690586676e-01  1.4093704177703083e-02  3.9327323122868338e-02  1.7251808691094847e-01  -1.1593981146921485e-01  4.7278533652126607e-02  -1.1028321568909516e-02  2.1951962566521824e-01  3.9683528858447371e-02  -9.7766241425319450e-02  2.4171414910994196e-01  -2.4478168374715267e-01  5.7432054640627020e-02  1.3461421009519714e-01  1.6283021073041667e-01  1.5316649703332930e-01  -1.1941622979251105e-02  1.2514443703261677e-01  2.1304319182609668e-01  -6.9426016252949726e-03  -6.4832486462562469e-02  1.8494703341919733e-01  2.3171603157514497e-02  1.2467364106782138e-01  6.9765111249038822e-02  2.7158086468802720e-02  -2.6630337218898309e-01  1.3475320903740812e-01  1.1241416664337660e-01  -5.8484652974116723e-03  1.0832864633581419e-02  2.1916223201470014e-01  1.2344348194887073e-01  -2.9155403740225995e-02  -3.5012424591840452e-02  9.2919139079315136e-02  -2.7514190767699891e-02  6.9202921040745186e-02  -8.2793550929216031e-02  -3.8184733467451354e-03  1.1491613281187595e-01  7.2377319233024776e-02  -6.1132242041449139e-02  -5.7086107274245110e-02  6.1524660406005058e-02  3.5042233152031976e-02  4.5278397970606156e-02  -1.7789962512775953e-02  1.6849058512685561e-01  1.1050739904865096e-01  2.5570408091411218e-01  -3.4543846565577060e-02  -3.5673984296831128e-02  3.5411290346873667e-02  -3.8239298200105187e-02  1.2282912336573533e-01  2.0267177660519085e-02  1.1205731692232584e-01  9.5884200468093178e-02  -2.0959601840453711e-02  1.6769037888198113e-01  1.5574027224223574e-01  -8.0928632723559407e-02  2.1129187145666961e-01  1.4635442844337063e-01  1.1907167817541504e-01  5.2545439514321401e-03  -2.3138974678348429e-02  1.4546749612171211e-01  9.3329025326115457e-03  -1.3763851164354551e-01  -7.4947768007246965e-02  -1.4313797632802339e-01  2.7618296820584542e-01  -1.3445806335685608e-03  6.2209750106774840e-02  2.9878788938530843e-01  2.9884842838315436e-02  2.4341366498303069e-01  -4.8624552927340213e-02  1.7343301992443139e-01  1.6108515525854034e-01  5.9721275103451842e-02  5.9156177534927412e-02  2.6998148960804086e-01  -1.8404886838625628e-01  8.7859056105485514e-02  6.6802580732652078e-02  -1.1594185322902477e-01  3.5337266187477137e-02  4.8716661626031603e-02  1.0872964092920707e-01  1.2932057221005114e-01  1.0262388616094970e-01  6.6488346498296533e-02  5.2263089106102154e-02  -7.5997580836887887e-02  1.5380726001368972e-01  5.4134026153936999e-03  -2.9287762449196845e-02  1.9168430835420405e-01  -3.0465976810113188e-03  -1.9411649304486731e-02  2.5187402981138024e-01  2.1196768031740615e-01  1.0997871194833449e-01  -7.2390782800181214e-02  2.0587520176870494e-01  -6.6831682860070407e-02  1.4658940617871688e-01  2.7777779635599704e-02  9.0643829363384235e-02  3.5532638683139661e-02  4.9114333259432687e-03  5.4241956072050901e-02  4.5580017367346765e-02  4.2880909575232877e-02  2.0191978840404023e-01  8.6876200115494961e-02  -1.0173862223623424e-01  2.8959799327321933e-01  -2.5421186222043379e-03  7.7705377668290679e-02  2.9837492202596898e-02  -3.8775481809526252e-02  -1.0760843882498849e-01  -1.2022694973039721e-01  -3.5509654907454960e-02  6.1999376073101561e-02  1.2671168354522644e-01  1.4876487678143321e-01  6.0346208827993596e-02  2.8132485998635312e-03  -1.5125263073759113e-01  -4.7000715489528465e-02  1.9510883005254628e-01  1.3911765694060962e-01  -6.8597421263525721e-02  -7.8710956018912218e-02  -4.3938942804603094e-02  -1.0813936700013951e-01  -1.2725682706242536e-01  -1.3662347684603005e-01  -2.2668961796152038e-02  1.9415427807279748e-01  6.4589618991409317e-02  6.7895391869603000e-02  1.3486531202835642e-01  4.6573496703769125e-02  1.4891166951125254e-01  2.7304486744842543e-01  9.0397962388106962e-02  -3.2304520567341018e-02  4.1235078999527441e-02  -1.3162175945205801e-01  3.0351838392536308e-02  -1.6941724834843418e-02  6.4210855759399943e-02  1.8821182375972437e-01  2.4194733555990172e-01  -4.4142617534558774e-02  -2.0871638985124782e-02  1.7557758626361955e-01  7.6487469070292663e-02  2.5254353893354908e-01  5.4081047400232708e-02  1.4989809761736550e-01  2.6954033062017858e-02  1.2912263814942043e-02  3.5428295507905341e-02  2.4681106206880862e-01  3.7900184974769636e-02  2.3334005104425609e-01  3.8374140820931400e-02  1.8076821526877607e-01  6.1441301487253921e-02  1.3333928780240062e-01  1.2297984390885687e-01  1.2607798873981493e-01  2.8043586752779825e-01  -6.5433412313512310e-02  -4.9052350603113581e-02  4.7741283257035791e-02  9.8230808983509096e-02  2.5494911422647898e-01  -2.3649524095550933e-02  -1.1469429066098599e-01  5.3023704023902642e-02  -4.6300930021749065e-02  -8.1282590011196879e-02  -4.5911808177958625e-02  -1.4278488826767173e-02  1.1821219311343004e-01  2.8158274214572043e-01  3.0274866324863689e-02  1.0724135152847833e-01  -3.2341565552050040e-02  -9.3281510094910276e-03  2.6051780796773316e-01  -1.6616983695686222e-01  1.2842951103292280e-01  2.2530184251629051e-01  7.6493447614269239e-02  9.2457525111561009e-02  -8.6105882098573144e-02  -6.7497491002549648e-02  2.2030580756199158e-01  1.9458752339110416e-01  -6.3498583843268610e-03  1.6786371040597093e-02  5.8566232708255145e-02  6.4841314673958247e-02  4.4464344468237806e-02  -5.2444794932582466e-03  -9.5121850940971531e-02  -1.0270502006358125e-01  2.5576578240567177e-01  9.3481855890745869e-02  5.0842488041401145e-02  2.1654884408009315e-03  6.4593777409155353e-02  3.0561167697710045e-01  2.3878684376743640e-02  2.5321373641729816e-01  8.7675518838500707e-02  -1.6022366894759210e-01  1.3131252846727351e-02  1.1645643008139193e-01  4.9810409187327792e-02  -8.3628070376706193e-02  5.1274634500607749e-02  -6.7113409299042567e-02  -1.2563297157293546e-02  2.2124716351920315e-01  4.3686882551917071e-03  1.8802126600970723e-02  8.6653502025244050e-02  2.1691554995485682e-01  1.3622326147636177e-01  1.3138808889435882e-01  -5.7163064620917173e-03  -5.3479180355601660e-02  7.7854504686896461e-02  1.7528909497377460e-01  1.4804112785723456e-01  2.1297384631859839e-01  -5.4592906391796217e-02  -1.3837740575256266e-01  1.3585064896782126e-01  1.6976456243185261e-03  8.0452877864792174e-02  4.1169032940601745e-03  5.6531255042391808e-02  9.5340886770459321e-02  2.8447957503479726e-01  2.4359814001025096e-01  1.7512623002700811e-01  1.7413153662836503e-01  1.9735136063518346e-01  2.7154706462649697e-01  -1.0096702050504631e-01  1.8114022694853471e-01  1.9814463251887143e-01  1.8476755589615709e-01  3.2728521373320468e-02  -7.8602178621574766e-03  -1.1513016758842570e-01  2.1658327232616703e-01  1.0060706719986920e-01  -1.5776978288267334e-02  1.0622640598967270e-01  1.0647755045412132e-02  -5.1230501500025512e-02  1.5574462912366527e-01  -3.0618001176905565e-02  1.3996766448698484e-02  2.8513842729992932e-02  -4.6115896389849940e-02  -6.4587486060955407e-02  2.1298219088864703e-01  1.2117827496698054e-01  3.4942918717153562e-02  1.2637446682231188e-01  -5.5934481328845785e-02  -1.9233392979938441e-02  5.7780769969128482e-02  -8.7184304069518423e-02  1.8456218450002451e-01  -1.3254065605428175e-02  9.0790288740028452e-02  -7.9299951849124528e-02  7.1894946232055681e-02  3.1608899744439714e-02  1.3779810471209106e-02  -5.8108501015406044e-02  1.2723047046030683e-01  -3.6378217662590674e-02  -1.7091968884335837e-01  1.9930227088069317e-02  1.8330664805492633e-01  2.0446251126239917e-01  -3.3356716573837181e-02  9.7780607265825673e-02  1.2903528649934132e-01  1.9570058697919807e-01  -4.5244933705560465e-02  6.2073834161631612e-02  -7.2346768841588648e-03  1.0818816514101445e-01  -1.9969120358789538e-01  -5.1664876781287242e-03  8.1227006322690684e-02  1.5479723350383007e-01  1.0873643587579679e-01  7.7726407498254033e-02  -4.2776109965045710e-03  -1.1668684494986379e-02  -6.8501603419984505e-03  -1.2911653022425310e-02  -1.5633701557926892e-02  5.5050279751670955e-02  -1.3524091867487817e-03  -1.2095721038662301e-01  1.5121207503452769e-01  1.5038857090666655e-01  -2.1171406923484851e-02  -9.1172091568755484e-02  1.0221597158062806e-01  -1.2014722916131076e-02  1.7599109318259235e-01  -2.8847002894608745e-02  1.5542491885249676e-01  3.2270503368961437e-02  9.0579684504861771e-02  4.5838346225370370e-02  -9.4911036491020589e-02  -3.7209719291347962e-02  7.6249107180074452e-02  -2.0230381834002151e-01  -1.2077987757699808e-01  3.1798825363467696e-02  5.9499364636623739e-02  -2.3735506022588539e-02  1.6006847055792900e-01  2.7681949000085798e-01  9.0031903239187472e-03  9.1248339200869680e-02  9.0040507596558152e-03  2.0426032037294076e-01  1.7921755732938853e-02  -3.1091950167199185e-02  2.2147039912772684e-01  -4.1070000248425087e-03  -3.9078989108584081e-02  2.2150275686570642e-01  2.4967909018936885e-01  -2.0999696640874886e-02  1.9081416765614079e-01  -3.9326834561749506e-02  