<?xml version="1.0"?>
<VTKFile type="UnstructuredGrid"  version="0.1"  >
<UnstructuredGrid>
<Piece  NumberOfPoints="4826" NumberOfCells="9274">
<Points>
<DataArray  type="Float64"  NumberOfComponents="3"  format="ascii">0.004357787137616029 0.04980973490456689 0  2.448294430073374e-13 0.05 0  -0.004357787137128233 0.04980973490460956 0  -0.004357787137605706 -0.04980973490456778 0  -2.344882876518267e-13 -0.05 0  0.004357787137138513 -0.04980973490460866 0  -0.2 -0.2 0  0.55 -0.2 0  2 -0.2 0  2 0.21 0  0.55 0.21 0  -0.2 0.21 0  0.002180969368511386 0.0499524110790822 0  -0.002180969368010819 0.04995241107910407 0  -0.002180969368502513 -0.04995241107908259 0  0.002180969368021486 -0.0499524110791036 0  -0.006814597157868607 0.04953343583455493 0  -0.009254746151924908 0.04913603233537922 0  -0.01167226819248128 0.04861849601995923 0  -0.01406125267347753 0.04798209221420657 0  -0.01641585876037609 0.04722837686348521 0  -0.01873032967049142 0.04635919272846228 0  -0.02099900674774951 0.04537666487973717 0  -0.0232163432975249 0.04428319550226104 0  -0.0253769181477669 0.04308145802223435 0  -0.02747544890327456 0.04177439057082161 0  -0.02950680486062692 0.04036518880070902 0  -0.03146601955223609 0.03885729807305569 0  -0.0333483028888871 0.03725440503391573 0  -0.03514905287103829 0.03556042860074884 0  -0.03686386684027007 0.03377951038104073 0  -0.0384885522433417 0.0319160045464898 0  -0.04001913688258778 0.02997446718746979 0  -0.04145187862754741 0.0279596451738408 0  -0.04278327456411638 0.0258764645493049 0  -0.04401006955882648 0.02373001848771415 0  -0.04512926421732728 0.02152555484076227 0  -0.04613812221762188 0.01926846330748221 0  -0.04703417700009761 0.01696426225697686 0  -0.04781523779803292 0.0146185852365256 0  -0.04847939499380464 0.01223716719811699 0  -0.04902502478771633 0.009825830477053876 0  -0.04945079316803359 0.007390470556897103 0  -0.04975565917250895 0.004937041655599784 0  -0.04993887743343513 0.002471542168028815 0  -0.05000000000000002 4.319617580295088e-13 0  -0.04993887743347691 -0.002471542167184487 0  -0.04975565917259078 -0.004937041654775128 0  -0.0494507931681559 -0.007390470556078771 0  -0.04902502478787634 -0.00982583047625548 0  -0.048479394994003 -0.01223716719733118 0  -0.04781523779827011 -0.01461858523574979 0  -0.04703417700037211 -0.01696426225621582 0  -0.04613812221792003 -0.01926846330676828 0  -0.04512926421765873 -0.0215255548400674 0  -0.0440100695591652 -0.02373001848708596 0  -0.04278327456447995 -0.0258764645487038 0  -0.04145187862791943 -0.02795964517328926 0  -0.04001913688296869 -0.02997446718696123 0  -0.03848855224374843 -0.03191600454599933 0  -0.03686386684070041 -0.03377951038057109 0  -0.03514905287149575 -0.03556042860029668 0  -0.03334830288936536 -0.03725440503348761 0  -0.03146601955271191 -0.03885729807267038 0  -0.02950680486109357 -0.0403651888003679 0  -0.02747544890375341 -0.04177439057050667 0  -0.02537691814821718 -0.0430814580219691 0  -0.02321634329799415 -0.04428319550201502 0  -0.02099900674823039 -0.04537666487951462 0  -0.01873032967097447 -0.04635919272826711 0  -0.0164158587608675 -0.0472283768633144 0  -0.01406125267397827 -0.04798209221405982 0  -0.01167226819300015 -0.04861849601983465 0  -0.00925474615244812 -0.04913603233528067 0  -0.006814597158347743 -0.04953343583448901 0  0.006814597157865879 -0.04953343583455529 0  0.009254746151927097 -0.0491360323353788 0  0.01167226819248615 -0.04861849601995805 0  0.01406125267347329 -0.04798209221420779 0  0.01641585876037412 -0.04722837686348589 0  0.01873032967049753 -0.04635919272845981 0  0.02099900674775168 -0.04537666487973616 0  0.02321634329751479 -0.04428319550226633 0  0.02537691814775486 -0.04308145802224143 0  0.02747544890326525 -0.04177439057082774 0  0.02950680486061762 -0.04036518880071581 0  0.03146601955222702 -0.03885729807306303 0  0.0333483028888813 -0.03725440503392092 0  0.03514905287103634 -0.03556042860075076 0  0.03686386684026893 -0.03377951038104196 0  0.03848855224333972 -0.03191600454649218 0  0.04001913688258468 -0.02997446718747393 0  0.04145187862754592 -0.02795964517384301 0  0.04278327456411439 -0.02587646454930818 0  0.04401006955882308 -0.02373001848772046 0  0.04512926421732501 -0.02152555484076704 0  0.04613812221761816 -0.01926846330749109 0  0.04703417700009521 -0.01696426225698355 0  0.04781523779803072 -0.01461858523653281 0  0.04847939499380377 -0.01223716719812044 0  0.04902502478771547 -0.009825830477058137 0  0.04945079316803235 -0.007390470556905473 0  0.04975565917250727 -0.004937041655616693 0  0.0499388774334346 -0.002471542168039619 0  0.05 -4.403257272689309e-13 0  0.04993887743347755 0.002471542167171875 0  0.04975565917259197 0.004937041654763091 0  0.04945079316815711 0.007390470556070629 0  0.04902502478787914 0.009825830476241509 0  0.04847939499400326 0.01223716719733013 0  0.04781523779826526 0.01461858523576567 0  0.0470341770003617 0.01696426225624468 0  0.04613812221791593 0.01926846330677807 0  0.04512926421764892 0.02152555484008794 0  0.04401006955917259 0.02373001848707224 0  0.04278327456448917 0.02587646454868855 0  0.04145187862794129 0.02795964517325684 0  0.04001913688300011 0.02997446718691929 0  0.03848855224377164 0.03191600454597132 0  0.03686386684071396 0.03377951038055631 0  0.03514905287149344 0.03556042860029895 0  0.03334830288935025 0.03725440503350112 0  0.03146601955270811 0.03885729807267346 0  0.0295068048611069 0.04036518880035816 0  0.02747544890376348 0.04177439057050004 0  0.02537691814825449 0.04308145802194713 0  0.02321634329801946 0.04428319550200175 0  0.02099900674825754 0.04537666487950205 0  0.01873032967100249 0.04635919272825579 0  0.0164158587608822 0.04722837686330929 0  0.01406125267398022 0.04798209221405924 0  0.01167226819298624 0.04861849601983799 0  0.009254746152419701 0.04913603233528602 0  0.006814597158349477 0.04953343583448876 0  -0.187519667561546 -0.2 0  -0.1748316574821168 -0.2 0  -0.1619325192212862 -0.2 0  -0.148818726846035 -0.2 0  -0.1354867192353635 -0.2 0  -0.1219328603917423 -0.2 0  -0.1081534592978099 -0.2 0  -0.09414476589796635 -0.2 0  -0.07990295884356099 -0.2 0  -0.06542416303692469 -0.2 0  -0.05070442887227664 -0.2 0  -0.03573975841838681 -0.2 0  -0.02052606515274366 -0.2 0  -0.005059208927244263 -0.2 0  0.01066502121897589 -0.2 0  0.0266509074223695 -0.2 0  0.04290280916834216 -0.2 0  0.05942514657702952 -0.2 0  0.0762224259839136 -0.2 0  0.09329921648059353 -0.2 0  0.110660175036538 -0.2 0  0.1283100227830172 -0.2 0  0.1462535753141169 -0.2 0  0.1644957199166657 -0.2 0  0.1830414159977267 -0.2 0  0.2018957233573105 -0.2 0  0.2210637763821503 -0.2 0  0.2405507887204602 -0.2 0  0.260362079066015 -0.2 0  0.2805030358280229 -0.2 0  0.3009791451426284 -0.2 0  0.3217959904068706 -0.2 0  0.3429592343744705 -0.2 0  0.3644746437000989 -0.2 0  0.3863480795092348 -0.2 0  0.4085854991020529 -0.2 0  0.4311929577241948 -0.2 0  0.4541766164908302 -0.2 0  0.4775427321916551 -0.2 0  0.5012976684604897 -0.2 0  0.5254479006641548 -0.2 0  0.5749999999999358 -0.2 0  0.5999999999998969 -0.2 0  0.6249999999998155 -0.2 0  0.6499999999998081 -0.2 0  0.6749999999997656 -0.2 0  0.6999999999997664 -0.2 0  0.7249999999997357 -0.2 0  0.7499999999996745 -0.2 0  0.7749999999995796 -0.2 0  0.7999999999995281 -0.2 0  0.8249999999994608 -0.2 0  0.8499999999994138 -0.2 0  0.8749999999993301 -0.2 0  0.8999999999992546 -0.2 0  0.9249999999991836 -0.2 0  0.9499999999990955 -0.2 0  0.9749999999990373 -0.2 0  0.9999999999989423 -0.2 0  1.024999999998847 -0.2 0  1.049999999998752 -0.2 0  1.074999999998672 -0.2 0  1.099999999998649 -0.2 0  1.124999999998554 -0.2 0  1.149999999998545 -0.2 0  1.174999999998451 -0.2 0  1.199999999998416 -0.2 0  1.224999999998348 -0.2 0  1.249999999998288 -0.2 0  1.274999999998288 -0.2 0  1.299999999998246 -0.2 0  1.324999999998369 -0.2 0  1.349999999998394 -0.2 0  1.37499999999845 -0.2 0  1.399999999998551 -0.2 0  1.424999999998531 -0.2 0  1.449999999998684 -0.2 0  1.474999999998642 -0.2 0  1.499999999998804 -0.2 0  1.524999999998773 -0.2 0  1.549999999998885 -0.2 0  1.574999999999013 -0.2 0  1.599999999999079 -0.2 0  1.624999999999119 -0.2 0  1.649999999999211 -0.2 0  1.674999999999224 -0.2 0  1.699999999999321 -0.2 0  1.724999999999342 -0.2 0  1.749999999999427 -0.2 0  1.774999999999474 -0.2 0  1.799999999999533 -0.2 0  1.824999999999605 -0.2 0  1.849999999999639 -0.2 0  1.874999999999735 -0.2 0  1.899999999999745 -0.2 0  1.924999999999841 -0.2 0  1.949999999999869 -0.2 0  1.974999999999947 -0.2 0  2 -0.1758823529412649 0  2 -0.1517647058824698 0  2 -0.12764705882371 0  2 -0.103529411764951 0  2 -0.07941176470620959 0  2 -0.05529411764745706 0  2 -0.03117647058865336 0  2 -0.007058823529918185 0  2 0.01705882352889865 0  2 0.04117647058779714 0  2 0.06529411764668486 0  2 0.08941176470558332 0  2 0.1135294117644398 0  2 0.137647058823337 0  2 0.1617647058822356 0  2 0.185882352941134 0  1.975000000000015 0.21 0  1.950000000000055 0.21 0  1.925000000000061 0.21 0  1.90000000000011 0.21 0  1.875000000000116 0.21 0  1.850000000000166 0.21 0  1.825000000000172 0.21 0  1.800000000000206 0.21 0  1.775000000000227 0.21 0  1.750000000000322 0.21 0  1.725000000000369 0.21 0  1.700000000000375 0.21 0  1.675000000000454 0.21 0  1.650000000000517 0.21 0  1.62500000000057 0.21 0  1.600000000000658 0.21 0  1.575000000000687 0.21 0  1.550000000000789 0.21 0  1.525000000000806 0.21 0  1.500000000000905 0.21 0  1.475000000001007 0.21 0  1.450000000001109 0.21 0  1.42500000000121 0.21 0  1.400000000001312 0.21 0  1.375000000001406 0.21 0  1.350000000001428 0.21 0  1.32500000000153 0.21 0  1.300000000001554 0.21 0  1.275000000001647 0.21 0  1.250000000001522 0.21 0  1.225000000001572 0.21 0  1.200000000001437 0.21 0  1.175000000001446 0.21 0  1.15000000000137 0.21 0  1.125000000001303 0.21 0  1.100000000001302 0.21 0  1.075000000001145 0.21 0  1.050000000001136 0.21 0  1.025000000000966 0.21 0  1.000000000000931 0.21 0  0.9750000000008732 0.21 0  0.9500000000008135 0.21
[...]
<PointData  Scalars="pressure"> 
<DataArray  type="Float64"  Name="pressure"  format="ascii">-8.2557848793986499e-01  -9.4593513795619188e-01  -1.0028936580358883e+00  -8.8889986292810286e-01  -8.4014850037656963e-01  -8.1897207272982442e-01  4.9210055228416877e-01  1.2768766622435943e-01  0.0000000000000000e+00  0.0000000000000000e+00  1.8024941754558971e-01  4.4027163490305060e-01  -8.8950894379984424e-01  -9.8934552614218640e-01  -8.5348444600814688e-01  -8.2692219061552219e-01  -1.0352556863972893e+00  -1.0522608490574337e+00  -1.0548018298909878e+00  -1.0450782559098890e+00  -1.0207309861699549e+00  -9.7877399736410986e-01  -9.2203140363527702e-01  -8.5088833650380458e-01  -7.6097122198079936e-01  -6.5319750023412027e-01  -5.3041152908435529e-01  -3.9790513108048964e-01  -2.5264368028597234e-01  -9.0561772812904923e-02  7.4239661832543588e-02  2.5045120846157293e-01  4.2761884537506850e-01  6.0327642366767531e-01  7.8520929715171939e-01  9.5423896245048678e-01  1.1250483355829219e+00  1.2821182025132472e+00  1.4275543457196653e+00  1.5617481526972363e+00  1.6775639384167564e+00  1.7754606402941278e+00  1.8554747830019773e+00  1.9163951551121521e+00  1.9517458503825593e+00  1.9672581464901180e+00  1.9609303098656556e+00  1.9314840677232357e+00  1.8814553800921399e+00  1.8098348040834116e+00  1.7202150686626214e+00  1.6145110593769676e+00  1.4892650668345626e+00  1.3541509738899720e+00  1.2044734200965479e+00  1.0452734899339846e+00  8.8087401459972481e-01  7.1088869660673260e-01  5.4271080620073520e-01  3.7450397538729285e-01  2.0444982464551670e-01  5.1757520023193247e-02  -1.0469334103987359e-01  -2.4431068746950466e-01  -3.7362914700520727e-01  -4.9174260339951997e-01  -5.9653980481183555e-01  -6.8270424419741982e-01  -7.5962381517823163e-01  -8.1465301772118648e-01  -8.6083752466323504e-01  -8.8800870821595912e-01  -9.0394926331983139e-01  -9.0606472688144535e-01  -8.9867817300361297e-01  -7.6876472467702373e-01  -7.3164575568041534e-01  -6.9631803416538751e-01  -6.6258411916894677e-01  -6.3271329209254645e-01  -6.0577394121338390e-01  -5.8212613672605651e-01  -5.6147983498548260e-01  -5.4369329822344781e-01  -5.2864976677808218e-01  -5.1566626467860055e-01  -5.0503383873818963e-01  -4.9597807009220368e-01  -4.8790431173561827e-01  -4.8060448362196884e-01  -4.7363946239843507e-01  -4.6704614623239921e-01  -4.6024342278564373e-01  -4.5331003175491053e-01  -4.4628848375475971e-01  -4.3938511764053312e-01  -4.3230832330864699e-01  -4.2573422423894530e-01  -4.1945365537867085e-01  -4.1401735617793167e-01  -4.0945770075253074e-01  -4.0597014164227269e-01  -4.0361003043432930e-01  -4.0241505506922559e-01  -4.0234307292159494e-01  -4.0330545921336991e-01  -4.0483364706247443e-01  -4.0707538914164776e-01  -4.0946998701116200e-01  -4.1194455080667197e-01  -4.1414666409715289e-01  -4.1634775378015376e-01  -4.1800120712357364e-01  -4.1967481729928824e-01  -4.2120588220087213e-01  -4.2272146459311194e-01  -4.2501697292388685e-01  -4.2800821980970266e-01  -4.3215118189454993e-01  -4.3801137983504657e-01  -4.4598320813811310e-01  -4.5611035158863389e-01  -4.6888118291769387e-01  -4.8396828761544564e-01  -5.0205228959677883e-01  -5.2262520995160910e-01  -5.4653179442031996e-01  -5.7345997940982096e-01  -6.0390003100790701e-01  -6.3771843569326891e-01  -6.7478628715830924e-01  -7.1450674661644364e-01  -7.5598791994556125e-01  -7.9994408745163603e-01  4.9142748782305712e-01  4.9037136856040897e-01  4.8794521001604724e-01  4.8436086467452705e-01  4.7877938057440012e-01  4.7093728463401857e-01  4.6001871701849656e-01  4.4575516361494116e-01  4.2711290278578773e-01  4.0405572970940729e-01  3.7613038022355832e-01  3.4251918065650777e-01  3.0562222589533306e-01  2.6429705397180786e-01  2.2186190481857390e-01  1.8026084095476475e-01  1.4128905016370297e-01  1.0599476461216824e-01  7.8385639907658705e-02  5.6963728560159556e-02  4.4746227772167829e-02  4.0553219365938607e-02  4.4273968997264955e-02  5.3286887604232822e-02  6.8450510243726642e-02  8.6704228658658983e-02  1.0462339845010010e-01  1.2084506915848658e-01  1.3244748018927885e-01  1.3663219602764898e-01  1.3102781501955116e-01  1.1362631801601465e-01  8.5543471561400186e-02  4.8017186486777025e-02  1.3946115107891607e-02  -1.2381118186809415e-02  -1.8421008021957643e-02  -8.5553525980797060e-03  2.0583716391059981e-02  5.4044478080987932e-02  9.1124490197673366e-02  1.6219965404979883e-01  1.9174525709419279e-01  2.1684591448674864e-01  2.3335986014585119e-01  2.3767885233887232e-01  2.3339230898302848e-01  2.2184881162878425e-01  2.0527513855450980e-01  1.8384651859477272e-01  1.5614082052573927e-01  1.2317878200467433e-01  8.7488029135670206e-02  5.0369216119375955e-02  1.7700721767277935e-02  4.0215260262626371e-03  1.0475668204033627e-02  4.5791338603125203e-02  9.7724748586001969e-02  1.5753322812937606e-01  2.0457803694735699e-01  2.3069893665979285e-01  2.3655840276542181e-01  2.2313951353511594e-01  1.9536268949157579e-01  1.5816548705402683e-01  1.0745187174831394e-01  5.3365623199440687e-02  -1.0230043004851887e-04  -3.6678664374546366e-02  -5.5435430523835837e-02  -4.4324960079497926e-02  -1.2135142663444098e-02  3.1060386604147679e-02  7.6895783129358575e-02  1.1582615380626826e-01  1.4056302868023582e-01  1.5492579137940424e-01  1.5510980302897046e-01  1.3854755157455356e-01  1.1216750697484761e-01  7.6217532172930785e-02  3.5680423505827452e-02  -2.7920444801716377e-03  -3.5904399169277283e-02  -5.6011745048476683e-02  -6.4175699778584269e-02  -5.6933189801934465e-02  -3.9751447026611111e-02  -1.4874980795300145e-02  1.1702479031437740e-02  3.4880650582101207e-02  5.4524469346656460e-02  6.5754883704054162e-02  6.7993790186646724e-02  6.0404370051336566e-02  4.4256582413267000e-02  2.3599126007020622e-02  0.0000000000000000e+00  0.0000000000000000e+00  0.0000000000000000e+00  0.0000000000000000e+00  0.0000000000000000e+00  0.0000000000000000e+00  0.0000000000000000e+00  0.0000000000000000e+00  0.0000000000000000e+00  0.0000000000000000e+00  0.0000000000000000e+00  0.0000000000000000e+00  0.0000000000000000e+00  0.0000000000000000e+00  0.0000000000000000e+00  0.0000000000000000e+00  -1.8552636157136579e-02  -3.7106720587105325e-02  -5.1455089107326345e-02  -5.9200950742972623e-02  -5.4846459357766393e-02  -4.0093176536002605e-02  -1.7316947276349484e-02  1.2359146462973328e-02  4.3016109574106003e-02  6.8384233462931876e-02  9.1404197862373998e-02  1.0390811877909241e-01  1.0508456086153385e-01  9.5373978901556883e-02  7.5416600404905887e-02  4.7579155686674125e-02  1.6054483602701869e-02  -1.4449722764898311e-02  -3.6599262903232711e-02  -4.9857400177907817e-02  -4.4354576469174470e-02  -2.1061333053099752e-02  1.7209061025934707e-02  6.8115543455240291e-02  1.1744529858275056e-01  1.5950988454788076e-01  1.9135622831278787e-01  2.0250725647125153e-01  1.9638486864588750e-01  1.6934690978133060e-01  1.2735333799223283e-01  7.2093932943344485e-02  1.5625991763761869e-02  -2.2510280920736217e-02  -3.3988636813027162e-02  -1.8641486815090081e-02  1.6863804831519235e-02  5.6164583558886615e-02  9.7254824300806092e-02  1.3467332178254551e-01  1.6686571255011168e-01  1.9659713357281230e-01  2.1849976452965600e-01  2.3217751135791115e-01  2.2808755476762224e-01  2.1195102824636949e-01  1.7604590661335626e-01  1.3367407597281117e-01  9.3389396569844657e-02  6.4426342499983011e-02  5.3431531175790838e-02  5.7369174750380461e-02  6.6818077802154804e-02  7.7715419333941702e-02  8.9931414738079585e-02  1.0859066909563252e-01  1.3702572183963152e-01  2.2948615745158588e-01  2.6821112157312182e-01  2.9883346223890539e-01  3.0609447431326103e-01  2.9420873983655549e-01  2.6048032130612314e-01  2.1687366669300201e-01  1.6389827525221112e-01  1.0862361276547455e-01  5.8975062419589649e-02  1.8406537485559170e-02  -1.3832611878668402e-02  -3.4741127406245999e-02  -4.6351810540919573e-02  -5.2580033811813899e-02  -5.3193226620673842e-02  -5.0158113394813512e-02  -4.2604153258114105e-02  -3.0833583542810090e-02  -1.4603929053057570e-02  6.3620909180190713e-03  3.2068122892250896e-02  6.3009645686042615e-02  9.7024604144845455e-02  1.3503448637228205e-01  1.7494787258424818e-01  2.1479019101268507e-01  2.5378646547868577e-01  2.8997093738392765e-01  3.2277535245480954e-01  3.5033547469884707e-01  3.7396878391686117e-01  3.9247292342453743e-01  4.0658825260928788e-01  4.1763149047732695e-01  4.2524693366096056e-01  4.3093650722006649e-01  4.3463889597657945e-01  4.3714795868170081e-01  4.3867626348735023e-01  4.3958902659024246e-01  4.4011679300002049e-01  4.4096419173172191e-01  4.4427162086449029e-01  4.5123599162478295e-01  4.6277588586816237e-01  4.7978021623005862e-01  5.0240501654095515e-01  5.3059244600001021e-01  5.6383603611542454e-01  6.0131415462375160e-01  6.4095541285792001e-01  6.8123702155831078e-01  7.1929527996109521e-01  7.5227351228009165e-01  7.7849662866196367e-01  7.9626603728374790e-01  8.0136647869222666e-01  7.9664856807759021e-01  7.8133360081051573e-01  7.5687861788300892e-01  7.2667805589090906e-01  6.9150166579713646e-01  6.5536903619377496e-01  6.1962276541247108e-01  5.8704200269551454e-01  5.5849805645066419e-01  5.3514940336617300e-01  5.1723907473140718e-01  5.0461572923674169e-01  4.9708812527574092e-01  4.9298618833652030e-01  4.9198747874383086e-01  1.2496513355213387e-01  1.1714980090049647e-01  9.7974628614153098e-02  6.4075672746313414e-02  -1.6850690766710426e-02  -1.4097636583393866e-01  -2.7781253757282282e-01  -3.2328551052988541e-01  -2.7136696280487838e-01  -1.2008350265282990e-01  3.1140147027623358e-02  1.3042311199201045e-01  1.6573633314551298e-01  1.7286703824118205e-01  1.7635580815793789e-01  1.8063055149177792e-01  -5.0256095199086706e-02  -3.6902279446520185e-02  -1.2916429984810872e-02  -7.1322000159818426e-03  -1.1118900097501115e-01  3.2480610228724685e-02  -3.7534626667973803e-03  8.5393938362544386e-02  -1.1147447239592208e-01  2.6038751912030905e-02  8.1232136882854841e-02  -1.6684899539103040e-01  2.0076733834355801e-01  -1.1765581963478489e-01  4.0423386342811791e-02  2.4724487026322922e-01  8.6740496100206455e-02  1.0025315181747267e-01  7.8234138715887164e-02  6.5511043083673337e-02  -8.6499884139354943e-02  -1.0906719101789568e-01  1.0732502955712007e-01  1.7202169776682724e-01  -2.3021009710006559e-02  -3.5338170656078756e-02  2.3788038669506406e-01  -8.4293979919084466e-02  4.6624530206844560e-02  -4.1619580546783330e-02  -1.0031341495347407e-01  2.2291347397607203e-01  2.1054734864233560e-01  2.1862267485181283e-01  4.8075288451607058e-02  -6.1682185245642875e-02  -3.9206572179815095e-02  -1.5007455877840881e-01  -1.8573619202511982e-02  -3.9064768619809405e-02  -1.2876672060125594e-03  -7.9732701405755366e-03  6.7782531551169615e-04  -4.3628573837295674e-02  -8.6911078547934062e-02  -1.4538608918230231e-01  -7.6226005645118153e-02  8.6549409179850975e-02  2.2631015794807993e-01  -7.1089315389586974e-02  6.9921143680575115e-02  7.9084787027229042e-02  1.6114221099704815e-01  6.2240151125131989e-02  1.6202359965236418e-02  1.4834444520044890e-01  1.2447390795118782e-01  -8.6859860608754294e-02  1.8820013472416031e-01  1.4216673132900945e-01  7.9447935141962717e-02  1.0470909815548560e-01  3.0694614706219200e-02  5.7761514985243859e-02  3.6892855832347818e-02  -3.1682140124833218e-02  8.9515403333187485e-02  -9.7632528316628428e-02  -1.9950242774437504e-01  -4.3400164709067011e-02  3.6488215426386097e-02  -9.5664412274550636e-02  1.0315186400001582e-01  6.8955868631150857e-02  -8.5592129450613008e-02  2.5456967023610871e-01  -2.0809491487252490e-03  8.5241167421295245e-03  1.6154102152614280e-01  -6.6323880315950545e-02  -2.3313302941603836e-01  6.1199342256528885e-02  1.4959458028234415e-01  2.5058428212243883e-01  -1.4006409778168646e-01  -6.4320112476897770e-02  1.0238869311623004e-01  1.6494855014276738e-01  -2.3477697896741430e-02  1.6092355236620573e-01  1.2180186253024060e-01  -6.8987410390096829e-02  -6.6121274066398561e-02  1.0415098572031940e-01  8.3118237564253544e-02  8.1655701462921310e-02  2.5163209664759201e-01  -3.3180828222876449e-02  -9.9367355426590087e-02  2.0432008610164091e-02  1.6774313814036385e-01  7.5900221454477307e-02  5.6285269507782197e-02  1.8076385454840017e-02  -7.4937676752221336e-02  -1.0729367488910018e-02  -1.9605173948464319e-01  -8.2444586696335684e-02  3.4298715532201311e-02  1.2931811269884277e-01  -7.6782449418341239e-02  -2.0389574913096821e-02  -7.5478128521284438e-02  1.7299430893971718e-01  -2.8169307152397238e-02  7.9009865289306785e-02  -2.8737367512637908e-02  -3.9361948199830403e-02  -9.5717666020341416e-02  -6.3379233978840877e-02  2.2200243230865233e-01  -4.8847089253230822e-02  7.6911237922395903e-02  7.1022898396761111e-02  -3.5766276397464444e-03  -2.6275426578427182e-02  1.9001098976460581e-01  3.7678899735285973e-02  2.1353068771693934e-01  -6.3991049274167822e-02  -6.5877831735568146e-02  -2.5837545097945418e-03  -2.1102536100391858e-01  8.9275487550451824e-02  1.4735464084428751e-01  2.2978178589417884e-02  -7.6807724632368879e-03  -2.4162998015443204e-02  1.5696758322442891e-01  -6.0518667800202305e-02  7.5903317817312119e-02  1.4474626980606672e-01  6.5355395570254174e-02  4.5916568193108860e-02  -1.4534016348779685e-01  2.1961207608839625e-01  4.3025216467339859e-02  -2.8623101721074334e-02  -1.0014057995446056e-01  5.7858257297354838e-02  -1.0945260338253709e-01  1.4865959915957405e-01  5.4094352573813190e-02  2.4138840637647044e-02  7.2112596734710363e-02  1.8645108144671613e-01  1.5478572721254980e-01  -5.5884704460925890e-03  1.5878826445633733e-02  1.6628362993703430e-01  3.7732778198586607e-02  1.4175293645902667e-02  2.1608930511889413e-01  4.6545859281198632e-03  3.7318027975075753e-02  2.3701411991082816e-01  -6.2905816158654523e-02  -1.4194575031636955e-01  2.4286845648392211e-01  8.5643991030114580e-02  1.7718361901617888e-01  6.4816983955028884e-02  1.2830930692735598e-01  -1.6884997726054611e-02  4.5227613478286438e-02  -1.0700937964940076e-02  -6.8371211495765971e-02  -8.2980721999293419e-02  3.0177146168709524e-02  1.0896599937941107e-01  -8.1786599326940074e-02  -1.8946365275337465e-01  2.6221575980648498e-01  7.2107803966663761e-02  -6.7442764065663643e-02  1.7691552888474701e-01  -3.3373087202158792e-02  1.0928609446684054e-01  4.0812548914002732e-02  -2.2724531319221149e-02  -1.1383168228303800e-01  -2.2136977166941510e-01  -6.7571400584688718e-02  7.8111791225261617e-03  2.0789212079460467e-01  3.8230286517173015e-02  -4.8786316249807310e-02  -4.8411855763124637e-02  6.2820840199620956e-03  -1.2072849016222605e-01  4.0822989254784260e-02  2.3424042228451597e-02  4.0323168319641819e-02  -1.4471600983471966e-01  6.8797068268168582e-03  3.7564353146029889e-03  -3.9673147586014097e-02  -5.8011017064026657e-02  -4.3329465968880224e-02  2.4750972507679114e-01  2.6891004878891234e-02  -5.1259414867148849e-02  -3.3113151537634215e-02  3.6568879320901776e-02  7.5263738623401535e-02  2.4242529905011231e-01  9.8676458634044270e-02  -1.0639267302472967e-01  4.9445944634105565e-02  4.4782165825238626e-02  1.2193540647860014e-01  -1.2142348853442829e-01  -1.4652493374449546e-01  2.3289305467967571e-02  2.5380448635635056e-01  3.4434054434870312e-02  1.1495796486478643e-01  -5.0481044362292699e-02  -9.6686013695959763e-02  2.6731264430317836e-01  -4.7321385106478972e-02  1.0654097613890011e-01  2.4951433925550002e-03  -1.5935873765815137e-01  1.1597771168400048e-01  2.1780367783870561e-01  1.2602205893579094e-01  1.8731296012836579e-01  1.1909768837930720e-01  -1.7657161137818267e-01  5.4901485522368974e-02  8.8709854985289799e-02  1.9040450552775676e-01  1.3889960967363443e-01  -7.9016003592963943e-02  -4.6506914954950809e-02  -4.3710135829329110e-02  1.2058476594725449e-01  1.7603946605814055e-01  6.9513228202548336e-02  9.6939089761549330e-02  -1.0856840263337079e-01  6.9521807925064377e-02  -8.8470211764563836e-02  -1.9947785428447388e-02  -6.2174729710215253e-02  -6.8020118245127473e-03  1.8514790826223287e-01  1.7303471411641724e-01  -7.2315439372663090e-02  1.5821688734432746e-01  -5.7046424645919316e-02  1.1633144328763145e-01  1.5172241433062095e-01  -1.0428713498321397e-02  4.3701483895341266e-02  -3.9958476548266564e-02  6.8810233963417095e-02  8.2282078647087226e-02  4.0592060878719444e-02  8.7677652415081977e-02  1.4285856984829473e-01  2.5452497134521646e-01  9.7675532120551061e-03  -1.1506256071290547e-01  8.3737240986144906e-02  -1.5373586329758127e-01  8.3056893830942322e-02  1.1316658376322487e-01  -1.0087154296974388e-01  4.6732616409196494e-02  5.3886674104617997e-02  -2.4475899772559304e-01  -5.0447531303203695e-02  -3.7460316694282889e-02  1.0507697213819021e-01  1.5840849353904840e-01  4.2952066261751604e-02  1.5137566171777531e-01  -3.9385367478001254e-02  -1.3076905816958603e-02  1.0131361849200615e-02  1.1000444212075125e-01  1.6914800997929000e-01  -9.2874426362872881e-02  -1.8452161679713079e-02  2.3957469743797932e-02  -3.9936307349827185e-02  -8.8822976312961766e-02  3.5182517816337529e-02  1.2915627944941135e-01  -6.0342079892395532e-02  -2.2623181797883435e-01  5.9253341754862500e-02  5.3502371105931187e-02  5.9537528439267288e-02  -8.1532811941587693e-02  -5.2127901651216169e-02  -2.6677258320395646e-02  1.4373663924574129e-02  1.1868325611058947e-02  5.4241496725576981e-02  -6.4482982329817612e-02  1.4789733633206667e-01  -2.7233550575339660e-02  2.0117172313267076e-01  -5.1092300225977036e-02  5.6046766479257298e-02  -6.0572302949276131e-02  8.2115636167370984e-02  2.2528669992908282e-01  2.0443659861598462e-01  -2.6379249103871700e-02  2.3721026908737350e-01  2.1857718231951345e-01  1.2251357255810747e-02  1.0432287180139407e-01  3.2490825718404025e-02  2.6297130362011595e-01  1.6864814519386540e-02  -7.8293476810759863e-02  -2.3081956777977499e-02  2.4054349671276956e-01  1.3151746840770007e-01  -3.1657347244335290e-02  1.7664555041253521e-01  -1.4301493510659080e-01  5.7461284851469396e-02  1.8649161130982123e-01  -3.7983424266294710e-02  -1.0015011064101491e-01  2.4973899475434738e-02  7.3046339707015615e-02  -2.0106199772358113e-02  2.1882531270499539e-01  1.6896176826079304e-01  6.0006427867656156e-02  1.1172179121512305e-01  -5.1453249652161019e-02  -5.5226120032604319e-02  -4.2678090332084029e-02  -3.8562426214302711e-02  2.3581295024883259e-01  -2.9815746734840232e-03  -6.6040119465930955e-02  -9.6712651534402547e-02  2.0251803734550064e-01  -7.2305901109618015e-02  8.5486657916729630e-02  -9.4935589533697573e-02  2.8328079659881091e-03  -7.5593831035786511e-03  -1.0700305190987368e-01  1.2291760386176652e-02  2.4200010625970911e-01  8.3606432750976067e-02  -9.2667554653562217e-02  1.7961007178779684e-01  -3.6270534788902568e-02  1.8921912995090207e-01  -9.2946776211616684e-03  1.7083247370802376e-01  -4.6337747707334174e-03  1.7788087793409957e-01  3.0953921494504166e-02  3.8179932024622672e-02  9.0544830387988065e-02  1.0613948129115364e-02  1.1304370672492146e-01  1.5481641107497127e-01  1.2991233786503228e-01  6.5136253733084085e-02  6.5469348440400088e-03  -1.3393051453208882e-01  6.4053984156864557e-02  3.7884362917361122e-02  9.8933752313670145e-02  -1.1080588639163374e-02  7.4492508122420914e-03  -1.1090800552918570e-01  -3.6494189592421025e-02  -2.7246606048966004e-02  6.3515037310126976e-02  -6.4360281397281185e-02  1.5455583804519563e-01  -3.0657298280663353e-02  1.7377250532332292e-01  -5.5734659091805527e-02  -1.5496996224438070e-01  -3.7776099189078573e-02  -1.0684357498660214e-01  -2.0875883784842275e-01  -2.5369715175048321e-02  -1.0706284686486368e-01  -1.1555742115444952e-01  1.5200226645503934e-01  1.1476421011407630e-01  -5.2679219299921726e-02  1.1142301503813319e-02  5.0004593472066572e-03  4.4411843725133869e-02  -7.1114108019135036e-02  -1.3466014981688748e-01  5.6825690571170017e-05  1.1070675857156860e-02  3.0151766206839948e-02  2.6246357137459442e-01  -5.4943085046035248e-02  -8.1861496751859608e-02  2.3806136944758857e-01  2.1238532784493469e-01  -2.3848007240659500e-02  1.