<?xml version="1.0"?>
<VTKFile type="UnstructuredGrid"  version="0.1"  >
<UnstructuredGrid>
<Piece  NumberOfPoints="4826" NumberOfCells="9274">
<Points>
<DataArray  type="Float64"  NumberOfComponents="3"  format="ascii">0.004357787137616029 0.04980973490456689 0  2.448294430073374e-13 0.05 0  -0.004357787137128233 0.04980973490460956 0  -0.004357787137605706 -0.04980973490456778 0  -2.344882876518267e-13 -0.05 0  0.004357787137138513 -0.04980973490460866 0  -0.2 -0.2 0  0.55 -0.2 0  2 -0.2 0  2 0.21 0  0.55 0.21 0  -0.2 0.21 0  0.002180969368511386 0.0499524110790822 0  -0.002180969368010819 0.04995241107910407 0  -0.002180969368502513 -0.04995241107908259 0  0.002180969368021486 -0.0499524110791036 0  -0.006814597157868607 0.04953343583455493 0  -0.009254746151924908 0.04913603233537922 0  -0.01167226819248128 0.04861849601995923 0  -0.01406125267347753 0.04798209221420657 0  -0.01641585876037609 0.04722837686348521 0  -0.01873032967049142 0.04635919272846228 0  -0.02099900674774951 0.04537666487973717 0  -0.0232163432975249 0.04428319550226104 0  -0.0253769181477669 0.04308145802223435 0  -0.02747544890327456 0.04177439057082161 0  -0.02950680486062692 0.04036518880070902 0  -0.03146601955223609 0.03885729807305569 0  -0.0333483028888871 0.03725440503391573 0  -0.03514905287103829 0.03556042860074884 0  -0.03686386684027007 0.03377951038104073 0  -0.0384885522433417 0.0319160045464898 0  -0.04001913688258778 0.02997446718746979 0  -0.04145187862754741 0.0279596451738408 0  -0.04278327456411638 0.0258764645493049 0  -0.04401006955882648 0.02373001848771415 0  -0.04512926421732728 0.02152555484076227 0  -0.04613812221762188 0.01926846330748221 0  -0.04703417700009761 0.01696426225697686 0  -0.04781523779803292 0.0146185852365256 0  -0.04847939499380464 0.01223716719811699 0  -0.04902502478771633 0.009825830477053876 0  -0.04945079316803359 0.007390470556897103 0  -0.04975565917250895 0.004937041655599784 0  -0.04993887743343513 0.002471542168028815 0  -0.05000000000000002 4.319617580295088e-13 0  -0.04993887743347691 -0.002471542167184487 0  -0.04975565917259078 -0.004937041654775128 0  -0.0494507931681559 -0.007390470556078771 0  -0.04902502478787634 -0.00982583047625548 0  -0.048479394994003 -0.01223716719733118 0  -0.04781523779827011 -0.01461858523574979 0  -0.04703417700037211 -0.01696426225621582 0  -0.04613812221792003 -0.01926846330676828 0  -0.04512926421765873 -0.0215255548400674 0  -0.0440100695591652 -0.02373001848708596 0  -0.04278327456447995 -0.0258764645487038 0  -0.04145187862791943 -0.02795964517328926 0  -0.04001913688296869 -0.02997446718696123 0  -0.03848855224374843 -0.03191600454599933 0  -0.03686386684070041 -0.03377951038057109 0  -0.03514905287149575 -0.03556042860029668 0  -0.03334830288936536 -0.03725440503348761 0  -0.03146601955271191 -0.03885729807267038 0  -0.02950680486109357 -0.0403651888003679 0  -0.02747544890375341 -0.04177439057050667 0  -0.02537691814821718 -0.0430814580219691 0  -0.02321634329799415 -0.04428319550201502 0  -0.02099900674823039 -0.04537666487951462 0  -0.01873032967097447 -0.04635919272826711 0  -0.0164158587608675 -0.0472283768633144 0  -0.01406125267397827 -0.04798209221405982 0  -0.01167226819300015 -0.04861849601983465 0  -0.00925474615244812 -0.04913603233528067 0  -0.006814597158347743 -0.04953343583448901 0  0.006814597157865879 -0.04953343583455529 0  0.009254746151927097 -0.0491360323353788 0  0.01167226819248615 -0.04861849601995805 0  0.01406125267347329 -0.04798209221420779 0  0.01641585876037412 -0.04722837686348589 0  0.01873032967049753 -0.04635919272845981 0  0.02099900674775168 -0.04537666487973616 0  0.02321634329751479 -0.04428319550226633 0  0.02537691814775486 -0.04308145802224143 0  0.02747544890326525 -0.04177439057082774 0  0.02950680486061762 -0.04036518880071581 0  0.03146601955222702 -0.03885729807306303 0  0.0333483028888813 -0.03725440503392092 0  0.03514905287103634 -0.03556042860075076 0  0.03686386684026893 -0.03377951038104196 0  0.03848855224333972 -0.03191600454649218 0  0.04001913688258468 -0.02997446718747393 0  0.04145187862754592 -0.02795964517384301 0  0.04278327456411439 -0.02587646454930818 0  0.04401006955882308 -0.02373001848772046 0  0.04512926421732501 -0.02152555484076704 0  0.04613812221761816 -0.01926846330749109 0  0.04703417700009521 -0.01696426225698355 0  0.04781523779803072 -0.01461858523653281 0  0.04847939499380377 -0.01223716719812044 0  0.04902502478771547 -0.009825830477058137 0  0.04945079316803235 -0.007390470556905473 0  0.04975565917250727 -0.004937041655616693 0  0.0499388774334346 -0.002471542168039619 0  0.05 -4.403257272689309e-13 0  0.04993887743347755 0.002471542167171875 0  0.04975565917259197 0.004937041654763091 0  0.04945079316815711 0.007390470556070629 0  0.04902502478787914 0.009825830476241509 0  0.04847939499400326 0.01223716719733013 0  0.04781523779826526 0.01461858523576567 0  0.0470341770003617 0.01696426225624468 0  0.04613812221791593 0.01926846330677807 0  0.04512926421764892 0.02152555484008794 0  0.04401006955917259 0.02373001848707224 0  0.04278327456448917 0.02587646454868855 0  0.04145187862794129 0.02795964517325684 0  0.04001913688300011 0.02997446718691929 0  0.03848855224377164 0.03191600454597132 0  0.03686386684071396 0.03377951038055631 0  0.03514905287149344 0.03556042860029895 0  0.03334830288935025 0.03725440503350112 0  0.03146601955270811 0.03885729807267346 0  0.0295068048611069 0.04036518880035816 0  0.02747544890376348 0.04177439057050004 0  0.02537691814825449 0.04308145802194713 0  0.02321634329801946 0.04428319550200175 0  0.02099900674825754 0.04537666487950205 0  0.01873032967100249 0.04635919272825579 0  0.0164158587608822 0.04722837686330929 0  0.01406125267398022 0.04798209221405924 0  0.01167226819298624 0.04861849601983799 0  0.009254746152419701 0.04913603233528602 0  0.006814597158349477 0.04953343583448876 0  -0.187519667561546 -0.2 0  -0.1748316574821168 -0.2 0  -0.1619325192212862 -0.2 0  -0.148818726846035 -0.2 0  -0.1354867192353635 -0.2 0  -0.1219328603917423 -0.2 0  -0.1081534592978099 -0.2 0  -0.09414476589796635 -0.2 0  -0.07990295884356099 -0.2 0  -0.06542416303692469 -0.2 0  -0.05070442887227664 -0.2 0  -0.03573975841838681 -0.2 0  -0.02052606515274366 -0.2 0  -0.005059208927244263 -0.2 0  0.01066502121897589 -0.2 0  0.0266509074223695 -0.2 0  0.04290280916834216 -0.2 0  0.05942514657702952 -0.2 0  0.0762224259839136 -0.2 0  0.09329921648059353 -0.2 0  0.110660175036538 -0.2 0  0.1283100227830172 -0.2 0  0.1462535753141169 -0.2 0  0.1644957199166657 -0.2 0  0.1830414159977267 -0.2 0  0.2018957233573105 -0.2 0  0.2210637763821503 -0.2 0  0.2405507887204602 -0.2 0  0.260362079066015 -0.2 0  0.2805030358280229 -0.2 0  0.3009791451426284 -0.2 0  0.3217959904068706 -0.2 0  0.3429592343744705 -0.2 0  0.3644746437000989 -0.2 0  0.3863480795092348 -0.2 0  0.4085854991020529 -0.2 0  0.4311929577241948 -0.2 0  0.4541766164908302 -0.2 0  0.4775427321916551 -0.2 0  0.5012976684604897 -0.2 0  0.5254479006641548 -0.2 0  0.5749999999999358 -0.2 0  0.5999999999998969 -0.2 0  0.6249999999998155 -0.2 0  0.6499999999998081 -0.2 0  0.6749999999997656 -0.2 0  0.6999999999997664 -0.2 0  0.7249999999997357 -0.2 0  0.7499999999996745 -0.2 0  0.7749999999995796 -0.2 0  0.7999999999995281 -0.2 0  0.8249999999994608 -0.2 0  0.8499999999994138 -0.2 0  0.8749999999993301 -0.2 0  0.8999999999992546 -0.2 0  0.9249999999991836 -0.2 0  0.9499999999990955 -0.2 0  0.9749999999990373 -0.2 0  0.9999999999989423 -0.2 0  1.024999999998847 -0.2 0  1.049999999998752 -0.2 0  1.074999999998672 -0.2 0  1.099999999998649 -0.2 0  1.124999999998554 -0.2 0  1.149999999998545 -0.2 0  1.174999999998451 -0.2 0  1.199999999998416 -0.2 0  1.224999999998348 -0.2 0  1.249999999998288 -0.2 0  1.274999999998288 -0.2 0  1.299999999998246 -0.2 0  1.324999999998369 -0.2 0  1.349999999998394 -0.2 0  1.37499999999845 -0.2 0  1.399999999998551 -0.2 0  1.424999999998531 -0.2 0  1.449999999998684 -0.2 0  1.474999999998642 -0.2 0  1.499999999998804 -0.2 0  1.524999999998773 -0.2 0  1.549999999998885 -0.2 0  1.574999999999013 -0.2 0  1.599999999999079 -0.2 0  1.624999999999119 -0.2 0  1.649999999999211 -0.2 0  1.674999999999224 -0.2 0  1.699999999999321 -0.2 0  1.724999999999342 -0.2 0  1.749999999999427 -0.2 0  1.774999999999474 -0.2 0  1.799999999999533 -0.2 0  1.824999999999605 -0.2 0  1.849999999999639 -0.2 0  1.874999999999735 -0.2 0  1.899999999999745 -0.2 0  1.924999999999841 -0.2 0  1.949999999999869 -0.2 0  1.974999999999947 -0.2 0  2 -0.1758823529412649 0  2 -0.1517647058824698 0  2 -0.12764705882371 0  2 -0.103529411764951 0  2 -0.07941176470620959 0  2 -0.05529411764745706 0  2 -0.03117647058865336 0  2 -0.007058823529918185 0  2 0.01705882352889865 0  2 0.04117647058779714 0  2 0.06529411764668486 0  2 0.08941176470558332 0  2 0.1135294117644398 0  2 0.137647058823337 0  2 0.1617647058822356 0  2 0.185882352941134 0  1.975000000000015 0.21 0  1.950000000000055 0.21 0  1.925000000000061 0.21 0  1.90000000000011 0.21 0  1.875000000000116 0.21 0  1.850000000000166 0.21 0  1.825000000000172 0.21 0  1.800000000000206 0.21 0  1.775000000000227 0.21 0  1.750000000000322 0.21 0  1.725000000000369 0.21 0  1.700000000000375 0.21 0  1.675000000000454 0.21 0  1.650000000000517 0.21 0  1.62500000000057 0.21 0  1.600000000000658 0.21 0  1.575000000000687 0.21 0  1.550000000000789 0.21 0  1.525000000000806 0.21 0  1.500000000000905 0.21 0  1.475000000001007 0.21 0  1.450000000001109 0.21 0  1.42500000000121 0.21 0  1.400000000001312 0.21 0  1.375000000001406 0.21 0  1.350000000001428 0.21 0  1.32500000000153 0.21 0  1.300000000001554 0.21 0  1.275000000001647 0.21 0  1.250000000001522 0.21 0  1.225000000001572 0.21 0  1.200000000001437 0.21 0  1.175000000001446 0.21 0  1.15000000000137 0.21 0  1.125000000001303 0.21 0  1.100000000001302 0.21 0  1.075000000001145 0.21 0  1.050000000001136 0.21 0  1.025000000000966 0.21 0  1.000000000000931 0.21 0  0.9750000000008732 0.21 0  0.9500000000008135 0.21
[...]
<PointData  Scalars="pressure"> 
<DataArray  type="Float64"  Name="pressure"  format="ascii">-8.0076615246611538e-01  -8.8344632308104953e-01  -9.1657786489930404e-01  -9.5684506045301321e-01  -8.8538969938110379e-01  -8.3501050188025017e-01  4.7759366587150737e-01  1.8898205687518940e-01  0.0000000000000000e+00  0.0000000000000000e+00  1.3652981712566348e-01  4.6944305699139688e-01  -8.4225123797946433e-01  -9.0688324536786302e-01  -9.1873481171761606e-01  -8.5805550303680622e-01  -9.3214654364227922e-01  -9.4018515726305762e-01  -9.3462168551751135e-01  -9.1758751434106400e-01  -8.8664019659596982e-01  -8.3912349566614408e-01  -7.7756396759147828e-01  -7.0226405028756389e-01  -6.0916857257976520e-01  -4.9912825670192440e-01  -3.7519437779290282e-01  -2.4218067567626511e-01  -9.7288945824760970e-02  6.2816537267248979e-02  2.2512861471725576e-01  3.9742035635061473e-01  5.6981709226290211e-01  7.3993881200581557e-01  9.1472803750263820e-01  1.0764263462616437e+00  1.2383218345187925e+00  1.3858644101226698e+00  1.5211324313791592e+00  1.6441800544394343e+00  1.7483427354223249e+00  1.8342855788558430e+00  1.9015679980524611e+00  1.9494854417889744e+00  1.9717266213727660e+00  1.9740437358094869e+00  1.9544526679318663e+00  1.9118171275873777e+00  1.8490527733596331e+00  1.7647528413962703e+00  1.6631777219435693e+00  1.5461757963610521e+00  1.4099574924722678e+00  1.2649975109307481e+00  1.1058850254414869e+00  9.3816374337439390e-01  7.6635210010893662e-01  5.8975890114127572e-01  4.1621952503639864e-01  2.4353038574785255e-01  6.9789179387029499e-02  -8.4940152910266575e-02  -2.4318142195899414e-01  -3.8287245464308328e-01  -5.1173087564272257e-01  -6.2832338326131465e-01  -7.3079077325413022e-01  -8.1363177361635264e-01  -8.8660586411935771e-01  -9.3660446102663819e-01  -9.7728918793955555e-01  -9.9788061663762873e-01  -1.0065824621137458e+00  -1.0004446398678033e+00  -9.8452501369163414e-01  -7.9011084690239564e-01  -7.4793005022666004e-01  -7.0655872862406455e-01  -6.6645295647847547e-01  -6.3009487778820705e-01  -5.9676415737736632e-01  -5.6699705926040922e-01  -5.4039244961474930e-01  -5.1695600455059965e-01  -4.9653524777767560e-01  -4.7855043714108481e-01  -4.6358680846365591e-01  -4.5137928001381927e-01  -4.4118784745602690e-01  -4.3338976457305189e-01  -4.2736817051470355e-01  -4.2337497679946545e-01  -4.2027267836543525e-01  -4.1825953099498836e-01  -4.1650941101833044e-01  -4.1497622878963286e-01  -4.1344955829617730e-01  -4.1157443103325908e-01  -4.0934058030138565e-01  -4.0712264581591445e-01  -4.0434538796108876e-01  -4.0189181349981756e-01  -3.9943902200802361e-01  -3.9750190253004380e-01  -3.9630499542878939e-01  -3.9598077205053694e-01  -3.9667120483703172e-01  -3.9883377346727961e-01  -4.0183927428002880e-01  -4.0614656172633828e-01  -4.1134254317720687e-01  -4.1734459041042443e-01  -4.2376046893631669e-01  -4.3070032453458101e-01  -4.3766716315574627e-01  -4.4455543674542941e-01  -4.5148637919922402e-01  -4.5829759349125376e-01  -4.6506047464675715e-01  -4.7201002045023094e-01  -4.7943660110682979e-01  -4.8753983424241709e-01  -4.9696225493387230e-01  -5.0775293767824037e-01  -5.2080436908867622e-01  -5.3596765469694863e-01  -5.5405608929960559e-01  -5.7497845040201268e-01  -5.9907929974985852e-01  -6.2638167803435585e-01  -6.5678792196002378e-01  -6.8984046499548013e-01  -7.2555557633148848e-01  -7.6248650830055520e-01  4.7694588368613750e-01  4.7612901822861203e-01  4.7440996025667231e-01  4.7190885899924706e-01  4.6787814742003497e-01  4.6193078766814294e-01  4.5322883542760467e-01  4.4132140859790031e-01  4.2487550320593914e-01  4.0371420502666322e-01  3.7702958468676945e-01  3.4390631110332959e-01  3.0646681271851889e-01  2.6342324081700591e-01  2.1805929916276715e-01  1.7232965251491961e-01  1.2726944898422035e-01  8.3766944285353209e-02  4.6918466232067850e-02  1.2845788172522108e-02  -1.3307734895669688e-02  -3.4858977759216737e-02  -4.9561089668720623e-02  -6.1446861956868118e-02  -6.6606379542823294e-02  -6.9035296638009030e-02  -6.6758233608664896e-02  -6.0014092066230727e-02  -4.6735876850912378e-02  -2.3322389380060843e-02  1.1777121509894935e-02  5.8979786882335634e-02  1.1349889239989566e-01  1.7286795742784120e-01  2.2841919836923028e-01  2.7749783068164280e-01  3.0838392757626698e-01  3.2279915143331878e-01  3.0862284839719450e-01  2.8114321617944582e-01  2.3571741248631800e-01  1.4940431005167101e-01  1.2422142768680673e-01  1.0603944920798597e-01  8.8519767963586724e-02  7.1077776391556172e-02  5.7685231207969166e-02  5.3625595633342023e-02  6.9528093090191187e-02  1.0213011916912998e-01  1.4830854002982033e-01  1.9330826552794800e-01  2.2567887346772980e-01  2.4049032994716080e-01  2.4148681556726315e-01  2.2720757018665802e-01  2.0492030790952009e-01  1.7534065887314662e-01  1.4131954697673543e-01  9.9887121802860177e-02  5.5551577209573148e-02  1.3846565760661641e-02  -2.0354359585007795e-02  -2.7525071101821643e-02  -8.3178866587095088e-03  3.6575316447846604e-02  9.5735841662204585e-02  1.4848347775827739e-01  1.8864177245981814e-01  2.0834382420602993e-01  2.1222690709908984e-01  1.9647231648745622e-01  1.6440328441113031e-01  1.2075859094971514e-01  6.9208688480923472e-02  1.8522529602044910e-02  -1.9372874250461282e-02  -4.6519537097003016e-02  -5.4779671999902531e-02  -4.1873085269748443e-02  -1.8051239512050860e-02  1.4500385470084053e-02  4.8891998764019839e-02  7.8621348867918578e-02  1.0193034951605047e-01  1.1354508987284118e-01  1.1500808399476681e-01  1.0351115766984369e-01  8.2913252068234661e-02  5.3530201674732283e-02  2.0731730300532526e-02  -9.8672125394140900e-03  -3.7151693023417358e-02  -5.4627096092323607e-02  -6.0691669465459057e-02  -5.4940361438626170e-02  -3.9546852102167004e-02  -2.0245563129327748e-02  0.0000000000000000e+00  0.0000000000000000e+00  0.0000000000000000e+00  0.0000000000000000e+00  0.0000000000000000e+00  0.0000000000000000e+00  0.0000000000000000e+00  0.0000000000000000e+00  0.0000000000000000e+00  0.0000000000000000e+00  0.0000000000000000e+00  0.0000000000000000e+00  0.0000000000000000e+00  0.0000000000000000e+00  0.0000000000000000e+00  0.0000000000000000e+00  2.3253054774944572e-02  4.4095493024344040e-02  5.9338580290089975e-02  6.7940720770267582e-02  6.5888876007149710e-02  5.5409976905348497e-02  3.9003858962050317e-02  1.7237643155367716e-02  -5.2928393807154632e-03  -2.4172564951250707e-02  -4.0999589179466576e-02  -4.8507067535223880e-02  -4.4311015197616779e-02  -2.7902748440270981e-02  7.0665296206931288e-04  3.7533018572092722e-02  7.7205102889948793e-02  1.1314514280292438e-01  1.3999621798483636e-01  1.5705031636694061e-01  1.5950685720533475e-01  1.4772525990867941e-01  1.2294283634192948e-01  8.4148299446104025e-02  4.0265333219722012e-02  -1.8160294043748446e-03  -3.6706894234389179e-02  -4.2953703739032331e-02  -2.6178246131453566e-02  1.6359268498959030e-02  6.6297075552404494e-02  1.1922790862625994e-01  1.6791563981378047e-01  2.0506319755968910e-01  2.3232752398810988e-01  2.4291399441615624e-01  2.3374861230549893e-01  2.0440592316742565e-01  1.5261313816173647e-01  9.4609427663941037e-02  4.7019503962437807e-02  1.8495958379924717e-02  1.5447494659504072e-02  3.2414395242239664e-02  6.2369835130733027e-02  9.4791929596314481e-02  1.2727617157806581e-01  1.5516219934850833e-01  1.7891420684851339e-01  2.0100104080772241e-01  2.1873983467737973e-01  2.3288521793782962e-01  2.4074388202053626e-01  2.3880286709741030e-01  2.2606916859588555e-01  2.0190817787567586e-01  1.7276121994408922e-01  9.6673973445295200e-02  6.0026717637533977e-02  2.4886116563670405e-02  1.3671715505932584e-03  -8.9612432611607430e-03  3.7484470543836342e-04  1.9985884175799482e-02  5.1873045790602236e-02  8.4883505705684481e-02  1.1089082200591663e-01  1.2673400016476327e-01  1.3470533908642962e-01  1.3391132425667404e-01  1.2687336333009641e-01  1.1571531271386716e-01  1.0251271101373104e-01  8.9705843998380164e-02  7.8778343241697357e-02  7.2710061473947984e-02  7.2668259623934070e-02  7.7558257946608700e-02  9.0348011319719257e-02  1.0983369521090344e-01  1.3456580920586816e-01  1.6522050143282346e-01  1.9920962087589097e-01  2.3493057124058089e-01  2.7112029570253060e-01  3.0580277031631314e-01  3.3796219493506752e-01  3.6600184744346487e-01  3.9074816439358556e-01  4.1085829285793019e-01  4.2693063691493205e-01  4.4001679974543551e-01  4.4956162286310275e-01  4.5696723023119223e-01  4.6201296276375720e-01  4.6547023072483784e-01  4.6758220924983435e-01  4.6875566587920575e-01  4.6931186390349272e-01  4.7036049667194196e-01  4.7399548310496148e-01  4.8132824453451079e-01  4.9319317230446358e-01  5.1036868897449261e-01  5.3294369018601206e-01  5.6075808931811189e-01  5.9323965210312246e-01  6.2947861901926827e-01  6.6735405970917572e-01  7.0533325075875841e-01  7.4053525115127072e-01  7.7014476427736422e-01  7.9261332080118330e-01  8.0632190761121048e-01  8.0722227448962203e-01  7.9837185292552748e-01  7.7913848941290198e-01  7.5113621214031390e-01  7.1782874173694822e-01  6.8013929576036769e-01  6.4202405568017973e-01  6.0490670763906074e-01  5.7143908292821044e-01  5.4246962530857190e-01  5.1904084734363221e-01  5.0133465251518217e-01  4.8906023477021537e-01  4.8194571968884958e-01  4.7822709044042255e-01  4.7745884801239424e-01  1.8788309203121009e-01  1.8351729467999503e-01  1.7910482575781764e-01  1.7492235489355293e-01  1.4210499425114931e-01  4.8840126908323372e-02  -9.7631679425550233e-02  -2.1192560245430447e-01  -2.5082681636636028e-01  -1.8264843929903490e-01  -7.7746343385361669e-02  2.7885312160817237e-02  8.6856715669430151e-02  1.1140397290074405e-01  1.2796880285688217e-01  1.3360157813615034e-01  -1.0566492449579667e-01  -2.4804756283383949e-02  -3.3646856427747403e-02  -2.3864095102924421e-02  6.8077942908703323e-02  -5.7698311622431886e-02  -4.5123851167335145e-02  -6.9757262043723720e-02  1.2172656559915740e-01  4.1551815306417141e-02  -6.5820914691621837e-02  1.3730226724855496e-01  6.7927732665559640e-02  8.3666944299425242e-02  2.4948349974166556e-01  4.2360430898600455e-02  -1.2594439092649612e-01  2.0107432293787467e-01  5.8836092878609560e-02  -5.7543088816597674e-03  1.1036752871820518e-01  1.4406388268401032e-01  -8.9068089405541284e-02  -1.2777997662885540e-01  4.4071482355448680e-02  1.8922767210092337e-01  -1.9764023233956440e-01  2.7321486010423518e-01  5.9808743432198969e-02  -6.0774801190265508e-02  2.4240139158992141e-01  -1.4998825016193335e-01  -2.6002922703897344e-02  -8.1257426139011601e-02  6.7804333594582780e-03  -3.1763505920760812e-02  -2.6389275964685814e-02  2.4148620204571458e-01  -5.3850020992932488e-03  -2.7990273024076296e-02  1.5463886263076369e-02  7.8951801402104629e-03  3.7440842687391583e-02  9.6052316108389352e-02  1.6774145932299400e-01  1.1208723416335055e-01  1.3598259130597102e-02  -1.0850156033321620e-01  9.2107491362299412e-02  7.7191143495804235e-02  2.3613780893960293e-01  -7.8817247421752015e-02  -8.3345810355759165e-02  6.3692936207772083e-02  1.6499526215552152e-01  3.0501399322235417e-02  -7.4235347347967426e-02  1.2467782370607385e-01  1.3117058653660288e-01  2.1664425183032587e-02  1.7893690732294809e-01  -1.5639683881094121e-01  -4.7459041965228592e-02  -4.6098542662088404e-02  2.4383115415027701e-01  1.0740533342461084e-01  -1.5159610027404621e-01  5.5471785418898349e-02  1.0862458745662562e-01  6.7764804842516740e-03  1.3437175527347597e-01  6.1334410732722777e-02  4.4424029695254823e-02  -1.1758053606526549e-01  9.0481023759086440e-02  5.3639661720874436e-03  7.8313904066320508e-02  -9.0414953910878504e-02  -2.1114387853797881e-01  2.0821494544609939e-01  1.4063147624295091e-01  2.5933455621959151e-01  -1.1987933343214785e-01  4.3599857793117723e-02  1.2119417457948337e-01  7.0832245475852790e-02  -4.7424119566340635e-02  -2.6010489228985929e-02  1.1465127848972406e-01  1.4686860357682502e-01  -2.4160971454899449e-01  1.8489184301214923e-01  1.9648816907715630e-01  -1.1427194308278951e-01  -3.8777007682389876e-02  -1.0083505395434343e-01  4.6018602548417595e-02  3.8726576529543554e-02  6.3978037170420457e-02  -6.4902848537971791e-02  7.9253587679929717e-03  9.9558138495949508e-03  -3.6344137417957585e-03  1.7334264013762249e-01  7.2131383134229135e-03  -2.3218617219552019e-02  1.3761327402706089e-01  3.2934031047339083e-04  1.0543572975651785e-01  -1.3157956729609342e-02  1.7342668477892520e-01  -1.0868427568256178e-02  1.2628035008629199e-01  -7.8752004639566706e-02  6.7641697397239492e-02  1.7879382119531545e-01  -3.4222576704167174e-02  1.3033861606320545e-02  -3.4878898334679699e-02  -1.3469845207058280e-02  -6.3858599183177850e-02  3.2363918075004609e-03  -7.1996435365897532e-02  2.5211510958975875e-01  2.5791564506658599e-01  2.2095339695069194e-01  -5.9185205383942494e-02  -3.3036113908521555e-02  -5.7540799148178237e-02  5.6645922545211502e-02  -2.7377969948632831e-02  -6.3757632671010575e-02  1.9558126234412318e-01  -2.1608267476759625e-02  -1.2917814036511177e-01  1.7895978284204450e-01  -4.9462088699590871e-03  2.1135835664580088e-02  1.0541524240055151e-01  6.3414810564599841e-02  1.6063485010661332e-01  9.5851914417861589e-02  -6.9492373473634461e-02  1.3322881695202771e-01  1.6137190381627770e-01  4.2927065880979158e-02  -5.9320094899741375e-02  2.2557012184470904e-01  1.1098754052536743e-01  1.4029128228015850e-01  1.6467829899728459e-01  -1.9968831600234724e-01  -1.4247112772342077e-01  1.5880181626866163e-01  -1.1165422147962825e-01  -1.2774966025649059e-01  -1.4631436062515102e-01  1.8617850168789651e-02  5.6158049460947455e-02  -1.3424005395671094e-02  -3.3762564749419986e-02  -2.8719142660745486e-02  -7.6170461892266375e-03  -7.0857238316525684e-02  -9.2526487139305183e-02  -4.9524908465756391e-02  -1.9174381912519918e-02  6.0430978172278708e-02  8.8957395578133619e-02  -3.7898260474266393e-02  -1.5842483779826566e-01  6.0877598569155290e-02  -9.7236687506791148e-04  3.6724752746843593e-02  -5.0807643441972368e-02  -2.7533106149753746e-02  2.1593651130828742e-02  5.9705429370473947e-02  -3.8244151099201477e-02  -5.6716299458056091e-02  2.2563512709833161e-01  2.0116861331101546e-01  -9.5244133628516844e-02  -1.0974187523747826e-01  4.8773498435517371e-02  1.2623731050068984e-01  3.9467466560212203e-02  1.8748658997146903e-01  -3.7145099128042959e-02  3.2919356680970832e-02  1.0446930944465040e-01  1.7840020099863113e-01  7.4534085270561018e-02  2.4958138498418886e-01  -6.3671346244354776e-02  4.6843322247009621e-02  -7.3855326759189016e-02  -2.5098402252767747e-04  2.6516476716751192e-01  4.9358276551178831e-02  2.1364580463223701e-01  4.4474025882020232e-03  -5.6162437258196786e-02  6.9519079795284558e-02  7.0244158214650659e-02  -4.1441752155696038e-02  1.0575366970136259e-01  6.3994082946986830e-02  1.5967772959478246e-01  -3.7278483413244606e-02  -2.8252724019397428e-02  2.4511937765563607e-01  9.3377174310696351e-02  -9.0503697371525360e-02  -1.2133021109241117e-02  7.0592788829730690e-02  -1.2051324412264962e-01  9.5696968936643312e-02  2.5172309638362256e-01  1.1157309761021512e-01  -3.0119099389395797e-02  1.4649907368140713e-01  7.5566776100657651e-02  1.2614810410013547e-01  7.8680882398073720e-02  -2.9457309010328621e-06  -5.1498133607035812e-02  1.4599878026896959e-01  7.3335251595256307e-02  6.7915648002764895e-02  4.6784475143702353e-03  -7.3455897721312377e-02  -1.0468398763185529e-02  1.0016289285575414e-01  2.0963996146207131e-01  9.7981687271629259e-02  -3.3080410422545968e-02  -7.9113731590468236e-02  1.1642563402217869e-01  1.9510691865157861e-01  2.6830492946484841e-01  -9.4164684716902342e-02  8.5043834393964152e-02  2.5744604332361188e-02  1.3276976576083524e-01  -1.5356866009671068e-02  1.9476942494015187e-02  -7.6883332802876569e-02  -2.2241728008249192e-01  4.0278255367040480e-02  1.0725038621829994e-01  1.9189525736073448e-01  -1.2755038673443708e-01  8.9708893236194076e-02  -2.6632603851946914e-02  6.7056883605102841e-02  2.5831266405060789e-02  -2.2027340198295109e-01  8.1963648898953509e-02  1.1995529591211418e-01  -6.3055072543119525e-02  1.0310473408728402e-02  2.2574882025407506e-01  1.4580421196965981e-01  1.8456151443822305e-01  -1.0426232886114227e-01  1.4703775750850276e-01  -6.4816868866724109e-02  2.3381353013496600e-01  1.7667382662960120e-02  3.3600440163929005e-02  -4.1628605318802782e-02  -2.8935005146318738e-03  -6.3862171368152393e-02  1.7862627692818128e-01  -2.9629881508830003e-01  2.2509402954737515e-01  -1.3743868749339694e-01  4.3371029855038726e-02  3.6725462330441494e-02  3.4827624523760425e-02  1.6436821706477855e-01  4.8566687315181233e-02  1.2167063059298636e-03  4.4091809814402999e-02  1.7012509240227824e-01  1.1246135007614889e-01  -3.9580530028893467e-02  3.9888018378676712e-02  1.4043392170779234e-01  1.1451040734085806e-01  -5.7196729614627607e-02  -5.0043518206206158e-02  1.7522946825071925e-02  4.5611032261794852e-02  -3.9575021455172603e-02  2.3117047533881670e-02  2.1107979560938972e-01  3.7437473443704378e-02  -6.1105976369065902e-02  -1.4084408683452182e-01  4.8245232725197602e-02  1.5048139276281014e-01  -4.5035203705245101e-02  2.3987074034012953e-01  2.0775847669666872e-01  5.5558684855701007e-02  9.5744345747161355e-02  4.8633563239846946e-02  1.0394782695693616e-02  2.1024451512585118e-01  -2.5866114464872535e-02  1.9881865553781516e-01  -1.6890209477652471e-01  -7.1122984069875661e-02  -1.1007005030918238e-01  4.3472812854203208e-02  3.3415804088060184e-02  9.3516364273282651e-02  1.6290891417702835e-01  3.5117518016283940e-02  -2.9979941529966941e-02  1.9694533876814899e-01  2.7377878340858204e-02  1.0452148973231602e-01  2.6717778221778399e-01  -9.5818145128490212e-02  1.0186270068912354e-01  -1.0540638380429405e-01  6.4538149930008837e-02  3.5734259044427215e-03  8.3656158307283176e-03  5.9464550676092652e-02  -1.0473726920562200e-01  -2.9295420889356393e-02  -9.7456664994855058e-02  1.0622597355694086e-01  -5.5394963132190778e-02  -1.2768183366831129e-01  1.0301128786860224e-01  2.6044310447881330e-01  -1.1343625504959980e-01  -9.0587760290045657e-02  4.4152253172523000e-03  4.5136818518660013e-02  -1.6288719230563467e-01  2.4192517152706094e-01  -9.3353650991645207e-02  6.3093184678686243e-02  6.2549166021208399e-02  1.9846797250004405e-02  4.4164910433237350e-02  2.1067159464741563e-03  2.6585674149648592e-01  1.4779170976798120e-01  8.0317520524553043e-02  -1.0005185415841510e-01  -7.2536616036261302e-04  -3.7661679396617291e-02  1.3158905076697427e-01  9.2515388319912253e-02  1.3852265436524783e-01  1.1259135351624627e-01  -2.2748694601892877e-01  -6.4782815508718141e-03  6.0464684669881974e-02  -5.2390805102749257e-05  6.7578879547627910e-02  1.8670890116126468e-01  -4.3594544738886340e-02  -5.2598427999560743e-02  -1.6073587832604992e-02  -5.1979352084201902e-02  2.6123777809287790e-02  1.9441051306762394e-01  2.2058525470334978e-01  -1.4510687778286685e-01  6.7850016566138496e-02  -7.1898802841508500e-02  1.5176319442464548e-01  -1.4359861760655194e-04  -8.5970322823382919e-02  -7.3168589816885399e-02  1.2838729458016376e-01  2.4979289944483497e-02  1.6894140404884364e-02  -5.8871194617041538e-02  4.0252495521316031e-02  -1.5520009653371502e-02  2.0048997561303505e-01  -3.7461727932862135e-02  1.3375426006937713e-01  -9.3358662172679671e-02  9.3939803413644624e-03  -4.2744808018530582e-02  -3.3009970801019521e-02  1.2414793099985388e-02  1.6333927424662825e-01  1.4734256543350255e-01  1.0568953209383428e-02  1.5290202105172646e-01  1.1491403087932128e-01  -1.3750522977412269e-02  2.2967756977421547e-01  7.8174716433941943e-02  -1.1364954911900380e-01  -1.1834900304258815e-01  6.4093106176919303e-04  1.5073494553801565e-02  8.8533787882223783e-02  -5.0539003094047748e-02  9.6297449233362323e-02  1.4075626145662223e-01  7.6475771878080606e-02  -6.7363609477739408e-02  1.6797274604274004e-01  3.1751698071312548e-02  2.1995498193235263e-02  -1.0999940346513418e-02  5.8220606120306238e-02  9.9972512173955655e-02  -1.5905776469386065e-02  -1.1206117759472453e