<?xml version="1.0"?>
<VTKFile type="UnstructuredGrid"  version="0.1"  >
<UnstructuredGrid>
<Piece  NumberOfPoints="4826" NumberOfCells="9274">
<Points>
<DataArray  type="Float64"  NumberOfComponents="3"  format="ascii">0.004357787137616029 0.04980973490456689 0  2.448294430073374e-13 0.05 0  -0.004357787137128233 0.04980973490460956 0  -0.004357787137605706 -0.04980973490456778 0  -2.344882876518267e-13 -0.05 0  0.004357787137138513 -0.04980973490460866 0  -0.2 -0.2 0  0.55 -0.2 0  2 -0.2 0  2 0.21 0  0.55 0.21 0  -0.2 0.21 0  0.002180969368511386 0.0499524110790822 0  -0.002180969368010819 0.04995241107910407 0  -0.002180969368502513 -0.04995241107908259 0  0.002180969368021486 -0.0499524110791036 0  -0.006814597157868607 0.04953343583455493 0  -0.009254746151924908 0.04913603233537922 0  -0.01167226819248128 0.04861849601995923 0  -0.01406125267347753 0.04798209221420657 0  -0.01641585876037609 0.04722837686348521 0  -0.01873032967049142 0.04635919272846228 0  -0.02099900674774951 0.04537666487973717 0  -0.0232163432975249 0.04428319550226104 0  -0.0253769181477669 0.04308145802223435 0  -0.02747544890327456 0.04177439057082161 0  -0.02950680486062692 0.04036518880070902 0  -0.03146601955223609 0.03885729807305569 0  -0.0333483028888871 0.03725440503391573 0  -0.03514905287103829 0.03556042860074884 0  -0.03686386684027007 0.03377951038104073 0  -0.0384885522433417 0.0319160045464898 0  -0.04001913688258778 0.02997446718746979 0  -0.04145187862754741 0.0279596451738408 0  -0.04278327456411638 0.0258764645493049 0  -0.04401006955882648 0.02373001848771415 0  -0.04512926421732728 0.02152555484076227 0  -0.04613812221762188 0.01926846330748221 0  -0.04703417700009761 0.01696426225697686 0  -0.04781523779803292 0.0146185852365256 0  -0.04847939499380464 0.01223716719811699 0  -0.04902502478771633 0.009825830477053876 0  -0.04945079316803359 0.007390470556897103 0  -0.04975565917250895 0.004937041655599784 0  -0.04993887743343513 0.002471542168028815 0  -0.05000000000000002 4.319617580295088e-13 0  -0.04993887743347691 -0.002471542167184487 0  -0.04975565917259078 -0.004937041654775128 0  -0.0494507931681559 -0.007390470556078771 0  -0.04902502478787634 -0.00982583047625548 0  -0.048479394994003 -0.01223716719733118 0  -0.04781523779827011 -0.01461858523574979 0  -0.04703417700037211 -0.01696426225621582 0  -0.04613812221792003 -0.01926846330676828 0  -0.04512926421765873 -0.0215255548400674 0  -0.0440100695591652 -0.02373001848708596 0  -0.04278327456447995 -0.0258764645487038 0  -0.04145187862791943 -0.02795964517328926 0  -0.04001913688296869 -0.02997446718696123 0  -0.03848855224374843 -0.03191600454599933 0  -0.03686386684070041 -0.03377951038057109 0  -0.03514905287149575 -0.03556042860029668 0  -0.03334830288936536 -0.03725440503348761 0  -0.03146601955271191 -0.03885729807267038 0  -0.02950680486109357 -0.0403651888003679 0  -0.02747544890375341 -0.04177439057050667 0  -0.02537691814821718 -0.0430814580219691 0  -0.02321634329799415 -0.04428319550201502 0  -0.02099900674823039 -0.04537666487951462 0  -0.01873032967097447 -0.04635919272826711 0  -0.0164158587608675 -0.0472283768633144 0  -0.01406125267397827 -0.04798209221405982 0  -0.01167226819300015 -0.04861849601983465 0  -0.00925474615244812 -0.04913603233528067 0  -0.006814597158347743 -0.04953343583448901 0  0.006814597157865879 -0.04953343583455529 0  0.009254746151927097 -0.0491360323353788 0  0.01167226819248615 -0.04861849601995805 0  0.01406125267347329 -0.04798209221420779 0  0.01641585876037412 -0.04722837686348589 0  0.01873032967049753 -0.04635919272845981 0  0.02099900674775168 -0.04537666487973616 0  0.02321634329751479 -0.04428319550226633 0  0.02537691814775486 -0.04308145802224143 0  0.02747544890326525 -0.04177439057082774 0  0.02950680486061762 -0.04036518880071581 0  0.03146601955222702 -0.03885729807306303 0  0.0333483028888813 -0.03725440503392092 0  0.03514905287103634 -0.03556042860075076 0  0.03686386684026893 -0.03377951038104196 0  0.03848855224333972 -0.03191600454649218 0  0.04001913688258468 -0.02997446718747393 0  0.04145187862754592 -0.02795964517384301 0  0.04278327456411439 -0.02587646454930818 0  0.04401006955882308 -0.02373001848772046 0  0.04512926421732501 -0.02152555484076704 0  0.04613812221761816 -0.01926846330749109 0  0.04703417700009521 -0.01696426225698355 0  0.04781523779803072 -0.01461858523653281 0  0.04847939499380377 -0.01223716719812044 0  0.04902502478771547 -0.009825830477058137 0  0.04945079316803235 -0.007390470556905473 0  0.04975565917250727 -0.004937041655616693 0  0.0499388774334346 -0.002471542168039619 0  0.05 -4.403257272689309e-13 0  0.04993887743347755 0.002471542167171875 0  0.04975565917259197 0.004937041654763091 0  0.04945079316815711 0.007390470556070629 0  0.04902502478787914 0.009825830476241509 0  0.04847939499400326 0.01223716719733013 0  0.04781523779826526 0.01461858523576567 0  0.0470341770003617 0.01696426225624468 0  0.04613812221791593 0.01926846330677807 0  0.04512926421764892 0.02152555484008794 0  0.04401006955917259 0.02373001848707224 0  0.04278327456448917 0.02587646454868855 0  0.04145187862794129 0.02795964517325684 0  0.04001913688300011 0.02997446718691929 0  0.03848855224377164 0.03191600454597132 0  0.03686386684071396 0.03377951038055631 0  0.03514905287149344 0.03556042860029895 0  0.03334830288935025 0.03725440503350112 0  0.03146601955270811 0.03885729807267346 0  0.0295068048611069 0.04036518880035816 0  0.02747544890376348 0.04177439057050004 0  0.02537691814825449 0.04308145802194713 0  0.02321634329801946 0.04428319550200175 0  0.02099900674825754 0.04537666487950205 0  0.01873032967100249 0.04635919272825579 0  0.0164158587608822 0.04722837686330929 0  0.01406125267398022 0.04798209221405924 0  0.01167226819298624 0.04861849601983799 0  0.009254746152419701 0.04913603233528602 0  0.006814597158349477 0.04953343583448876 0  -0.187519667561546 -0.2 0  -0.1748316574821168 -0.2 0  -0.1619325192212862 -0.2 0  -0.148818726846035 -0.2 0  -0.1354867192353635 -0.2 0  -0.1219328603917423 -0.2 0  -0.1081534592978099 -0.2 0  -0.09414476589796635 -0.2 0  -0.07990295884356099 -0.2 0  -0.06542416303692469 -0.2 0  -0.05070442887227664 -0.2 0  -0.03573975841838681 -0.2 0  -0.02052606515274366 -0.2 0  -0.005059208927244263 -0.2 0  0.01066502121897589 -0.2 0  0.0266509074223695 -0.2 0  0.04290280916834216 -0.2 0  0.05942514657702952 -0.2 0  0.0762224259839136 -0.2 0  0.09329921648059353 -0.2 0  0.110660175036538 -0.2 0  0.1283100227830172 -0.2 0  0.1462535753141169 -0.2 0  0.1644957199166657 -0.2 0  0.1830414159977267 -0.2 0  0.2018957233573105 -0.2 0  0.2210637763821503 -0.2 0  0.2405507887204602 -0.2 0  0.260362079066015 -0.2 0  0.2805030358280229 -0.2 0  0.3009791451426284 -0.2 0  0.3217959904068706 -0.2 0  0.3429592343744705 -0.2 0  0.3644746437000989 -0.2 0  0.3863480795092348 -0.2 0  0.4085854991020529 -0.2 0  0.4311929577241948 -0.2 0  0.4541766164908302 -0.2 0  0.4775427321916551 -0.2 0  0.5012976684604897 -0.2 0  0.5254479006641548 -0.2 0  0.5749999999999358 -0.2 0  0.5999999999998969 -0.2 0  0.6249999999998155 -0.2 0  0.6499999999998081 -0.2 0  0.6749999999997656 -0.2 0  0.6999999999997664 -0.2 0  0.7249999999997357 -0.2 0  0.7499999999996745 -0.2 0  0.7749999999995796 -0.2 0  0.7999999999995281 -0.2 0  0.8249999999994608 -0.2 0  0.8499999999994138 -0.2 0  0.8749999999993301 -0.2 0  0.8999999999992546 -0.2 0  0.9249999999991836 -0.2 0  0.9499999999990955 -0.2 0  0.9749999999990373 -0.2 0  0.9999999999989423 -0.2 0  1.024999999998847 -0.2 0  1.049999999998752 -0.2 0  1.074999999998672 -0.2 0  1.099999999998649 -0.2 0  1.124999999998554 -0.2 0  1.149999999998545 -0.2 0  1.174999999998451 -0.2 0  1.199999999998416 -0.2 0  1.224999999998348 -0.2 0  1.249999999998288 -0.2 0  1.274999999998288 -0.2 0  1.299999999998246 -0.2 0  1.324999999998369 -0.2 0  1.349999999998394 -0.2 0  1.37499999999845 -0.2 0  1.399999999998551 -0.2 0  1.424999999998531 -0.2 0  1.449999999998684 -0.2 0  1.474999999998642 -0.2 0  1.499999999998804 -0.2 0  1.524999999998773 -0.2 0  1.549999999998885 -0.2 0  1.574999999999013 -0.2 0  1.599999999999079 -0.2 0  1.624999999999119 -0.2 0  1.649999999999211 -0.2 0  1.674999999999224 -0.2 0  1.699999999999321 -0.2 0  1.724999999999342 -0.2 0  1.749999999999427 -0.2 0  1.774999999999474 -0.2 0  1.799999999999533 -0.2 0  1.824999999999605 -0.2 0  1.849999999999639 -0.2 0  1.874999999999735 -0.2 0  1.899999999999745 -0.2 0  1.924999999999841 -0.2 0  1.949999999999869 -0.2 0  1.974999999999947 -0.2 0  2 -0.1758823529412649 0  2 -0.1517647058824698 0  2 -0.12764705882371 0  2 -0.103529411764951 0  2 -0.07941176470620959 0  2 -0.05529411764745706 0  2 -0.03117647058865336 0  2 -0.007058823529918185 0  2 0.01705882352889865 0  2 0.04117647058779714 0  2 0.06529411764668486 0  2 0.08941176470558332 0  2 0.1135294117644398 0  2 0.137647058823337 0  2 0.1617647058822356 0  2 0.185882352941134 0  1.975000000000015 0.21 0  1.950000000000055 0.21 0  1.925000000000061 0.21 0  1.90000000000011 0.21 0  1.875000000000116 0.21 0  1.850000000000166 0.21 0  1.825000000000172 0.21 0  1.800000000000206 0.21 0  1.775000000000227 0.21 0  1.750000000000322 0.21 0  1.725000000000369 0.21 0  1.700000000000375 0.21 0  1.675000000000454 0.21 0  1.650000000000517 0.21 0  1.62500000000057 0.21 0  1.600000000000658 0.21 0  1.575000000000687 0.21 0  1.550000000000789 0.21 0  1.525000000000806 0.21 0  1.500000000000905 0.21 0  1.475000000001007 0.21 0  1.450000000001109 0.21 0  1.42500000000121 0.21 0  1.400000000001312 0.21 0  1.375000000001406 0.21 0  1.350000000001428 0.21 0  1.32500000000153 0.21 0  1.300000000001554 0.21 0  1.275000000001647 0.21 0  1.250000000001522 0.21 0  1.225000000001572 0.21 0  1.200000000001437 0.21 0  1.175000000001446 0.21 0  1.15000000000137 0.21 0  1.125000000001303 0.21 0  1.100000000001302 0.21 0  1.075000000001145 0.21 0  1.050000000001136 0.21 0  1.025000000000966 0.21 0  1.000000000000931 0.21 0  0.9750000000008732 0.21 0  0.9500000000008135 0.21
[...]
<PointData  Scalars="pressure"> 
<DataArray  type="Float64"  Name="pressure"  format="ascii">-8.1531142748555385e-01  -6.2367822583663857e-01  -7.1703530044819974e-01  -1.2311611013757153e+00  -1.2153695320062254e+00  -8.9586352926314561e-01  4.4902284642637014e-01  2.0957429389934662e-01  0.0000000000000000e+00  0.0000000000000000e+00  2.1516891680625233e-01  5.3851520137966025e-01  -6.9862693825502098e-01  -6.0864927990061046e-01  -1.3027875823712023e+00  -1.0739973604710653e+00  -7.0526533576299333e-01  -7.1628985183198635e-01  -7.1496244402411746e-01  -7.0178036197904747e-01  -6.7544071845505405e-01  -6.3257282106696899e-01  -5.7580265360161631e-01  -5.0544687641246455e-01  -4.1758356122636248e-01  -3.1307397421866212e-01  -1.9504381982454941e-01  -6.7672192185364230e-02  7.1139229710073526e-02  2.2446922381488332e-01  3.8018943268632549e-01  5.4512162967997768e-01  7.1010614379710557e-01  8.7253064843903738e-01  1.0388613644575835e+00  1.1922607778591243e+00  1.3449665847703862e+00  1.4831965315707158e+00  1.6088564923743789e+00  1.7218121315041068e+00  1.8156408077571076e+00  1.8911508583459942e+00  1.9474909382518373e+00  1.9843577144660360e+00  1.9954599696003379e+00  1.9865079167260051e+00  1.9555740009176636e+00  1.9015062156735651e+00  1.8274512822704736e+00  1.7317322695615782e+00  1.6189761149066408e+00  1.4910309584469748e+00  1.3437037225552027e+00  1.1880506481037174e+00  1.0181115185981608e+00  8.3962578086851070e-01  6.5730151218635824e-01  4.7021126844002964e-01  2.8642345031303690e-01  1.0352631813959710e-01  -8.1032263644088220e-02  -2.4509825847569666e-01  -4.1464686009565027e-01  -5.6429150757288726e-01  -7.0368342043893006e-01  -8.3088824416106732e-01  -9.4425924517588167e-01  -1.0376683656456851e+00  -1.1217304245092850e+00  -1.1821152511873581e+00  -1.2333481537713669e+00  -1.2643705154575517e+00  -1.2822169753009531e+00  -1.2862395552683661e+00  -1.2774366820611123e+00  -9.0234187150076250e-01  -8.6464739886910313e-01  -8.2313529916919870e-01  -7.8114481924420842e-01  -7.4096642359878606e-01  -7.0336219627080188e-01  -6.6875575317718272e-01  -6.3739891689201522e-01  -6.0917820308307336e-01  -5.8427783238210185e-01  -5.6205770545692346e-01  -5.4336828089032962e-01  -5.2796244889286714e-01  -5.1510406871616032e-01  -5.0544342972174860e-01  -4.9822885964216740e-01  -4.9374241484542619e-01  -4.9053164177518355e-01  -4.8868682091163501e-01  -4.8709272332510090e-01  -4.8504406343982548e-01  -4.8272030905697771e-01  -4.7891832149972602e-01  -4.7369479528206554e-01  -4.6740300742583402e-01  -4.5884369709472655e-01  -4.4950598833516542e-01  -4.3873942501961782e-01  -4.2754286592424462e-01  -4.1639480299014392e-01  -4.0562197523944393e-01  -3.9612158115167384e-01  -3.8840011403354191e-01  -3.8194298276981908e-01  -3.7789731306515040e-01  -3.7562893781776197e-01  -3.7497196176404879e-01  -3.7588838148855924e-01  -3.7816316701670999e-01  -3.8134879786882570e-01  -3.8543479619260079e-01  -3.9016767808524544e-01  -3.9556421165914224e-01  -4.0142002503845176e-01  -4.0780398115741101e-01  -4.1488238607547540e-01  -4.2267033976546337e-01  -4.3160121630805071e-01  -4.4162825551893004e-01  -4.5359750152362627e-01  -4.6735824314792240e-01  -4.8386832725731416e-01  -5.0306981143992346e-01  -5.2558281621739567e-01  -5.5145861522423911e-01  -5.8105943631891677e-01  -6.1427120368250709e-01  -6.5309960534418798e-01  -6.9165703237271092e-01  4.4839594946588723e-01  4.4761996021673123e-01  4.4592899875976533e-01  4.4342307911067880e-01  4.3929733390774400e-01  4.3311600631637431e-01  4.2398651972925466e-01  4.1143891916667824e-01  3.9414187385213673e-01  3.7198101543715251e-01  3.4432174284758182e-01  3.1043635707812439e-01  2.7277941267835132e-01  2.3037957385447161e-01  1.8671882749533122e-01  1.4389155382460353e-01  1.0330973089285243e-01  6.5869242872888978e-02  3.5356267284365098e-02  9.0948091258877348e-03  -9.4482718858179444e-03  -2.3127133350381291e-02  -3.0732599923021006e-02  -3.5737655961138481e-02  -3.5193048000108751e-02  -3.1163025366149531e-02  -2.1015570706633839e-02  -3.4113511069561175e-03  2.3157827180267491e-02  6.0627171635048042e-02  1.0880851900335976e-01  1.6310557640698886e-01  2.1819073556723859e-01  2.6825739678549332e-01  3.0580754271366922e-01  3.2872588747540521e-01  3.3190467542660251e-01  3.2083121206691634e-01  2.9621799375861629e-01  2.6869322035154974e-01  2.4100142108313441e-01  1.7360452455342659e-01  1.3476996408065042e-01  9.4966081597361474e-02  6.4652179337856733e-02  5.9588817397429203e-02  8.5729190805049718e-02  1.4002525514820791e-01  2.0396999072581376e-01  2.6237008208622087e-01  2.9921085995984870e-01  3.1679225180248838e-01  3.1308723408275851e-01  2.9281204290618096e-01  2.6235664875457682e-01  2.1974616364923524e-01  1.6470186776426057e-01  1.0007498913266009e-01  3.8729533952856714e-02  -8.5038735826827028e-03  -2.3948727142043335e-02  -2.2000916618146156e-03  4.8216553254752097e-02  1.0831056553653945e-01  1.6691371132556382e-01  2.0704860080360948e-01  2.3464997133444793e-01  2.4248981729286107e-01  2.3231781359491552e-01  2.0362279130562022e-01  1.6279263961487123e-01  1.1378542362775963e-01  5.7741079694292916e-02  5.8172775396660133e-03  -3.2934097489200544e-02  -5.5673512171942448e-02  -4.9159308472928806e-02  -2.3794211256934705e-02  1.1532537641969067e-02  5.5866170531859202e-02  9.6038609454496021e-02  1.2582559158570092e-01  1.4440330424058354e-01  1.4746013436046521e-01  1.3582547969977388e-01  1.0933112244788788e-01  7.3290922219919924e-02  2.9272309513676955e-02  -1.5912800938493139e-02  -5.7679468705759407e-02  -8.9344105955704356e-02  -1.0387352325172536e-01  -1.0074676122746072e-01  -8.3565842157960799e-02  -5.7500984180743557e-02  -3.1126219476369385e-02  -9.8062856427086828e-03  2.7198339318258897e-04  0.0000000000000000e+00  0.0000000000000000e+00  0.0000000000000000e+00  0.0000000000000000e+00  0.0000000000000000e+00  0.0000000000000000e+00  0.0000000000000000e+00  0.0000000000000000e+00  0.0000000000000000e+00  0.0000000000000000e+00  0.0000000000000000e+00  0.0000000000000000e+00  0.0000000000000000e+00  0.0000000000000000e+00  0.0000000000000000e+00  0.0000000000000000e+00  1.9451769917443310e-02  4.3175388691481645e-02  7.3097983052988896e-02  1.0232350102429633e-01  1.2541591160439805e-01  1.4197588991801507e-01  1.4836748325105462e-01  1.4272522334875612e-01  1.2600396042201251e-01  9.9199982102061823e-02  6.1663716006614043e-02  2.4278485331057423e-02  -1.2533216670903709e-02  -3.8997423264372388e-02  -4.8083671544058952e-02  -3.9448889618375935e-02  -1.2715091548609231e-02  2.4908376794670350e-02  7.2226692099220779e-02  1.1623127463771658e-01  1.5388051553845572e-01  1.8199148791130176e-01  1.9488228499034937e-01  1.9075958033782806e-01  1.7379989903239446e-01  1.3882864380021315e-01  9.4841935295911450e-02  4.6341202231895764e-02  1.9534424973646079e-03  -2.8510132061875873e-02  -3.3292394442092629e-02  -7.9484185745023681e-03  4.2223253147982205e-02  1.0513077056032126e-01  1.7510854966653955e-01  2.3006171405431763e-01  2.7637128859973592e-01  3.0250052030837127e-01  3.0630661191802172e-01  2.8747353092857159e-01  2.4398316645541063e-01  1.7603780321765328e-01  1.0165142183378910e-01  3.6764800112592692e-02  1.4444334708202153e-02  1.8744469495032803e-02  5.9996717636539125e-02  1.0895820287697316e-01  1.5842619714962039e-01  2.0400460550258565e-01  2.3982054821187909e-01  2.6939705872469855e-01  2.9151677669856263e-01  3.0441260552088650e-01  3.0478023992001452e-01  2.8934707017377398e-01  2.5985438854952514e-01  1.6714823099145595e-01  1.2714247231262102e-01  8.9241263575434868e-02  5.8122743918243014e-02  3.3646766587750718e-02  2.1127207533533223e-02  1.7033281811692339e-02  3.0637966593974299e-02  5.3985792233169357e-02  8.4433761802151619e-02  1.1386924457954628e-01  1.3960166028280999e-01  1.5551902459626754e-01  1.6413357901763348e-01  1.6783964022344577e-01  1.6713945981004205e-01  1.6476661269705614e-01  1.6204621884881598e-01  1.6157057724500312e-01  1.6477958504434648e-01  1.7148016588541051e-01  1.8452181710615376e-01  2.0319849042126201e-01  2.2653768350523243e-01  2.5522381569170222e-01  2.8690936331947220e-01  3.2016333748446207e-01  3.5382606272370809e-01  3.8592904098853531e-01  4.1564044464924138e-01  4.4151786027215839e-01  4.6433149489167108e-01  4.8291547477101043e-01  4.9783995096079497e-01  5.1006663040037481e-01  5.1908613195784503e-01  5.2615983419552204e-01  5.3106108895816828e-01  5.3446959171048491e-01  5.3659776046742447e-01  5.3780687517354531e-01  5.3840008104315351e-01  5.3941781223611052e-01  5.4286616151591871e-01  5.4976907662265739e-01  5.6088518387896380e-01  5.7689395377180752e-01  5.9783911518654675e-01  6.2347011512818251e-01  6.5317513520691095e-01  6.8597130513392979e-01  7.1972241593097652e-01  7.5291132506994551e-01  7.8267274873381776e-01  8.0626473321393255e-01  8.2229629506640445e-01  8.2925680310689154e-01  8.2330187068772032e-01  8.0771279651857097e-01  7.8203308940959415e-01  7.4805364300802568e-01  7.0932085433657910e-01  6.6694532899903924e-01  6.2481200549291960e-01  5.8445391232558741e-01  5.4838690628809406e-01  5.1745022168927790e-01  4.9257155170678041e-01  4.7388188560204697e-01  4.6097065142357252e-01  4.5352510643888694e-01  4.4965566914152011e-01  4.4887520879608200e-01  2.1156381258820930e-01  2.1353619085805522e-01  2.1213818155872938e-01  2.0697160450404081e-01  1.8768593110033074e-01  1.3602330202901533e-01  5.2285368123001844e-02  -4.7978442514596403e-02  -1.3474049241253910e-01  -1.1481917517991135e-01  -4.3193317111545060e-02  7.1189980075719042e-02  1.5930798742748431e-01  1.9814083660891174e-01  2.0942649496656582e-01  2.1258327187500303e-01  -3.5976482517878085e-02  -7.9999423851226104e-02  -7.6426396096411636e-02  -4.7704534365299284e-02  3.9472388044698790e-02  -7.5258682784321282e-02  -1.7313546968893717e-01  9.3483551304060192e-02  -5.4607175173020876e-02  2.3143083518291302e-01  2.1928082752351802e-01  7.8216075010292499e-02  -2.3429217478986769e-01  1.2828685821058419e-01  2.5624043870528435e-01  -3.0733968919862270e-01  -1.6527598450686212e-01  2.9959613368561105e-01  -2.9980486950896984e-01  1.8266003998630234e-01  -1.1324598000928474e-01  3.5054388954575938e-02  4.0461499691828343e-02  -1.4740210889726865e-01  -1.3118578685623333e-01  1.7749995569084126e-01  3.3464450260904138e-02  2.3966646656396545e-01  -9.9016808843457697e-03  -3.7534772270252176e-02  2.2737487528543371e-01  -1.9844715319713345e-02  1.3458386265735475e-01  -1.5964583877979287e-02  -1.1926893201210988e-01  -3.9313331938358564e-02  -3.9451912150619592e-02  2.0392048900572401e-01  -2.6663738321647049e-02  -3.3801927526724611e-02  1.6981105263253313e-01  -7.0961321936089908e-02  2.3412714584880801e-02  1.7839962682434723e-01  2.0099694078624267e-01  1.1090924686287887e-01  7.6745849868483040e-02  -5.0754583046047470e-02  8.4268347067902497e-02  7.1239253006392000e-02  3.3154300669010384e-01  -2.7426223287735117e-02  4.3427007672055713e-02  -8.8278817410550631e-02  4.4527772818174112e-02  -1.0346927108315185e-01  -4.0051498993020275e-02  3.5707603522391662e-02  2.6024692661772021e-02  2.4119490300822685e-01  3.3474845362568645e-01  -8.3243855115938944e-02  -2.5045700446593833e-01  -1.4216792700234496e-01  2.6953668178234474e-01  1.4470136254221411e-01  4.7918528693088290e-02  -8.2838228469147734e-02  1.6564147888591115e-02  1.2429414126905182e-01  2.1451704292047780e-01  3.2012810528421289e-02  -2.9430153123336904e-03  -3.1889966581555969e-02  1.3929500585296628e-01  -9.4417763764796367e-02  3.8306357629186702e-02  -1.8759379262941636e-01  -3.8143937459305322e-01  7.7521733303278550e-02  1.4791552289342766e-02  3.1780300724613947e-01  -2.1865894033340277e-01  9.3492112544884230e-04  4.4392815010943304e-02  1.5034845848626829e-01  -2.1674285861379813e-01  1.5656304157871562e-01  1.4967686265979907e-04  3.2582974352389954e-01  1.3634300629110982e-01  1.8768413406846005e-01  7.4710119639575204e-02  -1.3589490218854783e-01  9.8165614452140032e-02  2.0586326869526494e-02  -6.8522383401786818e-02  -1.4132627865212016e-01  2.8968656183883782e-02  2.6989163695467253e-02  2.5847190574936996e-01  1.4277281390270974e-01  -1.1765939552981297e-01  2.6179267566460440e-01  -1.2015120625465539e-02  -2.2042923907236661e-01  1.3169199752544181e-01  7.2700511427149532e-03  2.1229443828020370e-01  -2.9186193434548680e-01  1.2579070073891066e-01  -5.0736939355575045e-03  1.2654089640798946e-01  -5.5261842016899251e-02  -5.9494463491653236e-02  1.5856095775894791e-01  -4.5587507133369690e-02  7.7977598277934280e-03  2.9339287145218430e-02  -5.0967532753720707e-02  1.3570034500169184e-01  -2.3586947194725039e-02  -8.0702300939238414e-02  3.0875472769171347e-01  2.8360342576619546e-01  1.9673680182380732e-01  -2.4779647477964889e-01  1.2299209592660917e-01  -1.0228368335685765e-02  -1.6679726244274248e-01  -9.5025390726651774e-04  -1.5523241137170888e-02  1.2307394378534253e-01  -6.7343906794316552e-02  1.6408681964983377e-01  2.9103107945734552e-01  1.0644070478006902e-01  1.6830233564465447e-01  -4.7898517405841723e-02  3.0461802820830011e-02  2.9501795262561137e-01  1.2972771767857547e-01  1.1241214304188249e-02  -2.9654546728065036e-02  1.4145283680079512e-01  1.4996565148566660e-01  -2.1556778695241233e-01  2.3401854243359818e-01  -2.7242358708709710e-02  3.6837515643522355e-02  2.2812722712749336e-01  8.7185286506376594e-02  -1.2885558743287748e-01  1.2702800119053598e-01  -5.1130115623135547e-02  7.5810650660373999e-02  -7.0949108277339606e-02  -1.8003658668757583e-01  -6.4810606791172981e-02  2.7002312948194573e-01  -1.4091148566227563e-01  1.2003498195957699e-01  1.1957414824476273e-01  -6.5904115208220121e-02  -9.9298165078976516e-04  -2.8597451296713949e-01  -5.0076241288255267e-02  2.9087066596062121e-03  4.3916836105413214e-02  -2.2230825014639508e-01  -5.3738158364557073e-02  1.6649891141323275e-01  -7.4057870657634806e-02  1.5810584666272198e-01  -1.9441154182401926e-01  -1.1839980253500124e-01  -1.3356733400044052e-01  -4.2918596814369825e-02  7.4298188460783537e-02  3.6103410884990819e-02  1.7180000998480188e-01  7.5481542686369044e-02  -1.8888688401561143e-01  -2.0558693628300248e-01  1.6988904297948007e-01  1.5734046772828558e-01  2.9811475983167270e-02  2.8673533367088877e-01  4.5360253906878218e-04  1.3652558050615238e-02  1.6261750257180255e-01  1.4406849255831716e-01  1.0428645697092415e-01  2.7119642236650698e-01  8.0245836720123281e-02  -4.9418474357948224e-02  6.2272245240557980e-02  -9.3315127760997887e-03  2.8528959394522341e-01  5.7222482197300875e-02  2.3031961184145677e-01  -1.1525970432587387e-01  -1.4452783371393380e-01  6.3892985421186391e-02  1.5824594095208191e-01  7.3506806138482927e-02  2.2032360513484031e-01  1.3687417098990057e-01  1.8596901330437823e-01  3.2896479089646935e-02  -1.2853376542930664e-01  1.9389126202520998e-01  -6.1686596555195657e-02  -1.3846544425275578e-01  -3.1154027877995255e-01  -3.7402714632059582e-02  -6.8601270496486885e-02  8.8363403959809392e-02  3.0871670221939324e-01  2.7046439206542622e-01  2.9096967248823663e-01  1.0896495849379582e-01  -1.9389151278779927e-02  -2.4275346547173045e-03  -1.7739492934246198e-01  1.3803926876423847e-01  1.1164101403327008e-01  -2.4137969848161387e-02  -6.9552055537783611e-02  -7.1588982492511027e-02  -1.1711437745019605e-01  -1.2071181080173020e-01  -3.5088222327816443e-02  1.9952677956110360e-02  3.2587036313177153e-01  1.8800978593278481e-03  8.8294623877744838e-02  -1.3309311510356292e-01  3.0917122368655137e-01  1.2755773943786394e-01  3.0611505694932006e-01  -1.2358037396481270e-01  2.6112003931309180e-01  -1.3438885903670034e-01  -8.7790299471079150e-02  -1.6011088644254115e-02  2.7477072665732294e-02  3.0994445800148450e-02  -4.6678966045072386e-02  -1.9238955369624502e-01  2.4659891745229023e-01  1.6208983480820560e-01  -7.8234975350317870e-02  1.2023040384199637e-01  4.1969424750165123e-02  5.2643042544497587e-02  1.8459345362472030e-02  -6.7540800597654188e-02  -1.7168409814979768e-01  6.8940544497381351e-02  2.0430518402086560e-02  -7.4254440908994241e-04  3.4258193969693573e-01  8.5708522223616496e-02  1.6926495512199100e-01  -2.3193795398324674e-01  -5.4703599730994271e-02  -3.7688302811327262e-02  3.1424124978728080e-01  1.7094351589664036e-01  2.0611834043776731e-01  -1.3222002226039067e-01  -2.0765470899882824e-01  2.5305888267304399e-02  1.1600771938066404e-01  -1.4083174891067021e-01  1.1541228149960130e-01  7.8534310543194902e-02  1.8237583884279651e-01  9.9922270679390149e-02  -5.6421142380188749e-02  6.7568300565975015e-02  5.5372791559231513e-02  -1.4475681027728834e-01  2.3989859997035953e-02  2.8769716054668260e-01  1.5958851147058251e-01  1.0225154695645163e-02  -5.5205403515516706e-02  6.3146576426253195e-02  1.2588606384086778e-01  -2.9731473637994804e-02  -3.5319075397334788e-02  2.0748194907250581e-01  3.3857591827326616e-02  -1.7874621895934553e-01  1.7184529725992456e-01  2.1927053775123773e-01  5.6178315729101876e-02  8.5109936871611922e-03  6.8356550688115914e-03  -1.3718736340683560e-01  9.6985228304942828e-02  -1.1530800912120916e-01  2.7672438059821231e-01  3.1273110667536325e-01  4.8403587687010745e-02  -2.3167392418707491e-03  -1.7179673487903194e-01  -1.3848285196874704e-01  2.2029318901557110e-01  1.3418841243198920e-01  2.5787990556809087e-01  -1.6581034101496139e-01  -9.3293451732112592e-02  1.6256584852456576e-01  5.8311117802241812e-03  1.8127773740081646e-01  -4.6473913679976851e-02  1.2011331122138613e-01  -3.6084520492744569e-02  -4.6292672885301511e-01  7.5739914832224198e-02  1.7374756921034334e-02  9.4419781163408378e-02  3.1081389560405592e-01  -2.5666116092774444e-01  -6.4314921793238472e-02  -1.0798453135743010e-02  8.2396721916366558e-02  2.8954741556892747e-03  1.5815157951054304e-01  5.0519994172778290e-02  -5.6408200704869169e-02  -9.7148052448384675e-02  1.6571868885264826e-01  3.5795967023565991e-03  1.0847043109939707e-01  -7.4491372519053758e-02  1.4369145544510223e-01  1.9474148958391335e-01  -5.3799959778934571e-02  1.4213639212848950e-01  7.1453418255160425e-02  -1.9518790211268336e-01  -5.4027132223566407e-02  3.0308956467372355e-01  -1.5189322959551307e-01  1.3972493690066676e-01  7.1698070448686244e-02  -5.3702320732111883e-02  1.7175106124094405e-01  2.1114158753129730e-02  2.8328633899945033e-01  3.7686118159611148e-02  1.5364697141716438e-01  9.6605870850679468e-02  -5.4325968785807963e-02  8.1508294875459672e-02  1.5579020679007774e-01  -2.6689697697038742e-03  1.9898262423207505e-01  1.0326110774245330e-01  2.0973697067623032e-02  -2.4534236761221552e-02  -4.7300438713964922e-02  -2.4646909801992443e-02  3.0793534168573999e-01  8.8879521968659142e-02  -3.0904808069088707e-01  -5.7179012628652080e-03  1.3621678642398091e-01  9.6165316661782265e-03  2.2789606801642839e-01  2.2739454604584275e-01  2.3212818486166406e-01  -9.0374073716075198e-02  -6.2060681118833533e-02  -1.4288915551627288e-01  3.0669945694830364e-01  2.6170210895452739e-01  2.8461678623617603e-02  -1.5753850243963741e-02  6.6875136452208411e-02  1.3671481373213459e-01  -7.0183964903537052e-02  8.3185524313698481e-02  1.8404804339693479e-01  -2.1064907905136027e-01  1.9519922020961863e-01  -9.0720414710183314e-02  2.2276648698311577e-01  -1.8194075864548401e-01  -1.8691025616903511e-02  -4.8883634013452068e-02  -3.0432896165174056e-02  -2.7863300232363614e-01  1.3368860806357558e-01  -1.6248433226749740e-02  -6.6965985615883378e-02  1.9630887063579042e-01  5.6402371465194487e-02  -1.7055475323312191e-01  2.2302596104309599e-01  1.4317504306692685e-01  3.9603552136593619e-02  -3.5503909667447493e-02  -2.1333602919775582e-02  -1.5447379816544979e-01  1.2564020148856514e-01  1.6112721947876905e-02  -5.5692262585939026e-02  5.6573745984473560e-02  -1.2467844947273654e-01  -2.7525259288152183e-02  2.4170552397608006e-01  -1.5114355560832990e-01  -1.8889600256812245e-04  -7.7233036003694312e-03  -1.2880017935425659e-02  -1.3724310828117917e-01  -8.5525357291505125e-03  -1.47015072