<?xml version="1.0"?>
<VTKFile type="UnstructuredGrid"  version="0.1"  >
<UnstructuredGrid>
<Piece  NumberOfPoints="4826" NumberOfCells="9274">
<Points>
<DataArray  type="Float64"  NumberOfComponents="3"  format="ascii">0.004357787137616029 0.04980973490456689 0  2.448294430073374e-13 0.05 0  -0.004357787137128233 0.04980973490460956 0  -0.004357787137605706 -0.04980973490456778 0  -2.344882876518267e-13 -0.05 0  0.004357787137138513 -0.04980973490460866 0  -0.2 -0.2 0  0.55 -0.2 0  2 -0.2 0  2 0.21 0  0.55 0.21 0  -0.2 0.21 0  0.002180969368511386 0.0499524110790822 0  -0.002180969368010819 0.04995241107910407 0  -0.002180969368502513 -0.04995241107908259 0  0.002180969368021486 -0.0499524110791036 0  -0.006814597157868607 0.04953343583455493 0  -0.009254746151924908 0.04913603233537922 0  -0.01167226819248128 0.04861849601995923 0  -0.01406125267347753 0.04798209221420657 0  -0.01641585876037609 0.04722837686348521 0  -0.01873032967049142 0.04635919272846228 0  -0.02099900674774951 0.04537666487973717 0  -0.0232163432975249 0.04428319550226104 0  -0.0253769181477669 0.04308145802223435 0  -0.02747544890327456 0.04177439057082161 0  -0.02950680486062692 0.04036518880070902 0  -0.03146601955223609 0.03885729807305569 0  -0.0333483028888871 0.03725440503391573 0  -0.03514905287103829 0.03556042860074884 0  -0.03686386684027007 0.03377951038104073 0  -0.0384885522433417 0.0319160045464898 0  -0.04001913688258778 0.02997446718746979 0  -0.04145187862754741 0.0279596451738408 0  -0.04278327456411638 0.0258764645493049 0  -0.04401006955882648 0.02373001848771415 0  -0.04512926421732728 0.02152555484076227 0  -0.04613812221762188 0.01926846330748221 0  -0.04703417700009761 0.01696426225697686 0  -0.04781523779803292 0.0146185852365256 0  -0.04847939499380464 0.01223716719811699 0  -0.04902502478771633 0.009825830477053876 0  -0.04945079316803359 0.007390470556897103 0  -0.04975565917250895 0.004937041655599784 0  -0.04993887743343513 0.002471542168028815 0  -0.05000000000000002 4.319617580295088e-13 0  -0.04993887743347691 -0.002471542167184487 0  -0.04975565917259078 -0.004937041654775128 0  -0.0494507931681559 -0.007390470556078771 0  -0.04902502478787634 -0.00982583047625548 0  -0.048479394994003 -0.01223716719733118 0  -0.04781523779827011 -0.01461858523574979 0  -0.04703417700037211 -0.01696426225621582 0  -0.04613812221792003 -0.01926846330676828 0  -0.04512926421765873 -0.0215255548400674 0  -0.0440100695591652 -0.02373001848708596 0  -0.04278327456447995 -0.0258764645487038 0  -0.04145187862791943 -0.02795964517328926 0  -0.04001913688296869 -0.02997446718696123 0  -0.03848855224374843 -0.03191600454599933 0  -0.03686386684070041 -0.03377951038057109 0  -0.03514905287149575 -0.03556042860029668 0  -0.03334830288936536 -0.03725440503348761 0  -0.03146601955271191 -0.03885729807267038 0  -0.02950680486109357 -0.0403651888003679 0  -0.02747544890375341 -0.04177439057050667 0  -0.02537691814821718 -0.0430814580219691 0  -0.02321634329799415 -0.04428319550201502 0  -0.02099900674823039 -0.04537666487951462 0  -0.01873032967097447 -0.04635919272826711 0  -0.0164158587608675 -0.0472283768633144 0  -0.01406125267397827 -0.04798209221405982 0  -0.01167226819300015 -0.04861849601983465 0  -0.00925474615244812 -0.04913603233528067 0  -0.006814597158347743 -0.04953343583448901 0  0.006814597157865879 -0.04953343583455529 0  0.009254746151927097 -0.0491360323353788 0  0.01167226819248615 -0.04861849601995805 0  0.01406125267347329 -0.04798209221420779 0  0.01641585876037412 -0.04722837686348589 0  0.01873032967049753 -0.04635919272845981 0  0.02099900674775168 -0.04537666487973616 0  0.02321634329751479 -0.04428319550226633 0  0.02537691814775486 -0.04308145802224143 0  0.02747544890326525 -0.04177439057082774 0  0.02950680486061762 -0.04036518880071581 0  0.03146601955222702 -0.03885729807306303 0  0.0333483028888813 -0.03725440503392092 0  0.03514905287103634 -0.03556042860075076 0  0.03686386684026893 -0.03377951038104196 0  0.03848855224333972 -0.03191600454649218 0  0.04001913688258468 -0.02997446718747393 0  0.04145187862754592 -0.02795964517384301 0  0.04278327456411439 -0.02587646454930818 0  0.04401006955882308 -0.02373001848772046 0  0.04512926421732501 -0.02152555484076704 0  0.04613812221761816 -0.01926846330749109 0  0.04703417700009521 -0.01696426225698355 0  0.04781523779803072 -0.01461858523653281 0  0.04847939499380377 -0.01223716719812044 0  0.04902502478771547 -0.009825830477058137 0  0.04945079316803235 -0.007390470556905473 0  0.04975565917250727 -0.004937041655616693 0  0.0499388774334346 -0.002471542168039619 0  0.05 -4.403257272689309e-13 0  0.04993887743347755 0.002471542167171875 0  0.04975565917259197 0.004937041654763091 0  0.04945079316815711 0.007390470556070629 0  0.04902502478787914 0.009825830476241509 0  0.04847939499400326 0.01223716719733013 0  0.04781523779826526 0.01461858523576567 0  0.0470341770003617 0.01696426225624468 0  0.04613812221791593 0.01926846330677807 0  0.04512926421764892 0.02152555484008794 0  0.04401006955917259 0.02373001848707224 0  0.04278327456448917 0.02587646454868855 0  0.04145187862794129 0.02795964517325684 0  0.04001913688300011 0.02997446718691929 0  0.03848855224377164 0.03191600454597132 0  0.03686386684071396 0.03377951038055631 0  0.03514905287149344 0.03556042860029895 0  0.03334830288935025 0.03725440503350112 0  0.03146601955270811 0.03885729807267346 0  0.0295068048611069 0.04036518880035816 0  0.02747544890376348 0.04177439057050004 0  0.02537691814825449 0.04308145802194713 0  0.02321634329801946 0.04428319550200175 0  0.02099900674825754 0.04537666487950205 0  0.01873032967100249 0.04635919272825579 0  0.0164158587608822 0.04722837686330929 0  0.01406125267398022 0.04798209221405924 0  0.01167226819298624 0.04861849601983799 0  0.009254746152419701 0.04913603233528602 0  0.006814597158349477 0.04953343583448876 0  -0.187519667561546 -0.2 0  -0.1748316574821168 -0.2 0  -0.1619325192212862 -0.2 0  -0.148818726846035 -0.2 0  -0.1354867192353635 -0.2 0  -0.1219328603917423 -0.2 0  -0.1081534592978099 -0.2 0  -0.09414476589796635 -0.2 0  -0.07990295884356099 -0.2 0  -0.06542416303692469 -0.2 0  -0.05070442887227664 -0.2 0  -0.03573975841838681 -0.2 0  -0.02052606515274366 -0.2 0  -0.005059208927244263 -0.2 0  0.01066502121897589 -0.2 0  0.0266509074223695 -0.2 0  0.04290280916834216 -0.2 0  0.05942514657702952 -0.2 0  0.0762224259839136 -0.2 0  0.09329921648059353 -0.2 0  0.110660175036538 -0.2 0  0.1283100227830172 -0.2 0  0.1462535753141169 -0.2 0  0.1644957199166657 -0.2 0  0.1830414159977267 -0.2 0  0.2018957233573105 -0.2 0  0.2210637763821503 -0.2 0  0.2405507887204602 -0.2 0  0.260362079066015 -0.2 0  0.2805030358280229 -0.2 0  0.3009791451426284 -0.2 0  0.3217959904068706 -0.2 0  0.3429592343744705 -0.2 0  0.3644746437000989 -0.2 0  0.3863480795092348 -0.2 0  0.4085854991020529 -0.2 0  0.4311929577241948 -0.2 0  0.4541766164908302 -0.2 0  0.4775427321916551 -0.2 0  0.5012976684604897 -0.2 0  0.5254479006641548 -0.2 0  0.5749999999999358 -0.2 0  0.5999999999998969 -0.2 0  0.6249999999998155 -0.2 0  0.6499999999998081 -0.2 0  0.6749999999997656 -0.2 0  0.6999999999997664 -0.2 0  0.7249999999997357 -0.2 0  0.7499999999996745 -0.2 0  0.7749999999995796 -0.2 0  0.7999999999995281 -0.2 0  0.8249999999994608 -0.2 0  0.8499999999994138 -0.2 0  0.8749999999993301 -0.2 0  0.8999999999992546 -0.2 0  0.9249999999991836 -0.2 0  0.9499999999990955 -0.2 0  0.9749999999990373 -0.2 0  0.9999999999989423 -0.2 0  1.024999999998847 -0.2 0  1.049999999998752 -0.2 0  1.074999999998672 -0.2 0  1.099999999998649 -0.2 0  1.124999999998554 -0.2 0  1.149999999998545 -0.2 0  1.174999999998451 -0.2 0  1.199999999998416 -0.2 0  1.224999999998348 -0.2 0  1.249999999998288 -0.2 0  1.274999999998288 -0.2 0  1.299999999998246 -0.2 0  1.324999999998369 -0.2 0  1.349999999998394 -0.2 0  1.37499999999845 -0.2 0  1.399999999998551 -0.2 0  1.424999999998531 -0.2 0  1.449999999998684 -0.2 0  1.474999999998642 -0.2 0  1.499999999998804 -0.2 0  1.524999999998773 -0.2 0  1.549999999998885 -0.2 0  1.574999999999013 -0.2 0  1.599999999999079 -0.2 0  1.624999999999119 -0.2 0  1.649999999999211 -0.2 0  1.674999999999224 -0.2 0  1.699999999999321 -0.2 0  1.724999999999342 -0.2 0  1.749999999999427 -0.2 0  1.774999999999474 -0.2 0  1.799999999999533 -0.2 0  1.824999999999605 -0.2 0  1.849999999999639 -0.2 0  1.874999999999735 -0.2 0  1.899999999999745 -0.2 0  1.924999999999841 -0.2 0  1.949999999999869 -0.2 0  1.974999999999947 -0.2 0  2 -0.1758823529412649 0  2 -0.1517647058824698 0  2 -0.12764705882371 0  2 -0.103529411764951 0  2 -0.07941176470620959 0  2 -0.05529411764745706 0  2 -0.03117647058865336 0  2 -0.007058823529918185 0  2 0.01705882352889865 0  2 0.04117647058779714 0  2 0.06529411764668486 0  2 0.08941176470558332 0  2 0.1135294117644398 0  2 0.137647058823337 0  2 0.1617647058822356 0  2 0.185882352941134 0  1.975000000000015 0.21 0  1.950000000000055 0.21 0  1.925000000000061 0.21 0  1.90000000000011 0.21 0  1.875000000000116 0.21 0  1.850000000000166 0.21 0  1.825000000000172 0.21 0  1.800000000000206 0.21 0  1.775000000000227 0.21 0  1.750000000000322 0.21 0  1.725000000000369 0.21 0  1.700000000000375 0.21 0  1.675000000000454 0.21 0  1.650000000000517 0.21 0  1.62500000000057 0.21 0  1.600000000000658 0.21 0  1.575000000000687 0.21 0  1.550000000000789 0.21 0  1.525000000000806 0.21 0  1.500000000000905 0.21 0  1.475000000001007 0.21 0  1.450000000001109 0.21 0  1.42500000000121 0.21 0  1.400000000001312 0.21 0  1.375000000001406 0.21 0  1.350000000001428 0.21 0  1.32500000000153 0.21 0  1.300000000001554 0.21 0  1.275000000001647 0.21 0  1.250000000001522 0.21 0  1.225000000001572 0.21 0  1.200000000001437 0.21 0  1.175000000001446 0.21 0  1.15000000000137 0.21 0  1.125000000001303 0.21 0  1.100000000001302 0.21 0  1.075000000001145 0.21 0  1.050000000001136 0.21 0  1.025000000000966 0.21 0  1.000000000000931 0.21 0  0.9750000000008732 0.21 0  0.9500000000008135 0.21
[...]
<PointData  Scalars="pressure"> 
<DataArray  type="Float64"  Name="pressure"  format="ascii">-7.8419457240128942e-01  -1.1590484185853689e+00  -1.1433770531839316e+00  -7.0758496020537498e-01  -5.8386086819945748e-01  -7.7214980136336309e-01  5.6290204290742440e-01  2.9298315886206988e-01  0.0000000000000000e+00  0.0000000000000000e+00  7.8717776849955387e-02  4.3245828399551828e-01  -9.9365310625424130e-01  -1.2331195717149752e+00  -5.7236186980918424e-01  -6.5636476509114849e-01  -1.1804738587048780e+00  -1.1849874018680255e+00  -1.1743495001769120e+00  -1.1527693874996496e+00  -1.1161217839515327e+00  -1.0627509390421559e+00  -9.9511210786943216e-01  -9.1349257015981988e-01  -8.1366464986086617e-01  -6.9650558259893047e-01  -5.6492796979804016e-01  -4.2469667280252821e-01  -2.7201568963923162e-01  -1.0316336985850000e-01  6.7563870508515464e-02  2.4931824702678718e-01  4.3120258299293635e-01  6.1117933739918262e-01  7.9685637765952211e-01  9.6917413318132617e-01  1.1429110812777075e+00  1.3024338951891150e+00  1.4500763163605097e+00  1.5861364103187148e+00  1.7035883677212464e+00  1.8029546916455488e+00  1.8842710747724207e+00  1.9463649298908958e+00  1.9827882675441950e+00  1.9994027996270960e+00  1.9941205532897490e+00  1.9657580612098340e+00  1.9169566018959971e+00  1.8466111507198937e+00  1.7584938937657049e+00  1.6544515211500395e+00  1.5310953187609702e+00  1.3982133800728702e+00  1.2510247472114728e+00  1.0947435751264905e+00  9.3371449773918480e-01  7.6749584402735316e-01  6.0361656213846426e-01  4.4014398554085138e-01  2.7565227834078260e-01  1.2853615475487298e-01  -2.1028853092402974e-02  -1.5355553852510362e-01  -2.7517276951799524e-01  -3.8490079961458989e-01  -4.8068390501256886e-01  -5.5747919275826285e-01  -6.2437120020880177e-01  -6.6920721519794579e-01  -7.0486795184884088e-01  -7.2107163497654581e-01  -7.2643693558051170e-01  -7.1714815748464555e-01  -7.0014817415431918e-01  -6.7253500553411993e-01  -6.2643642622732387e-01  -5.8618000610449850e-01  -5.4859342651338106e-01  -5.1634782266009238e-01  -4.8743989997160680e-01  -4.6243369650462546e-01  -4.4052987137000754e-01  -4.2173176580517308e-01  -4.0562154720373622e-01  -3.9158052976845892e-01  -3.7989522190247521e-01  -3.7017991015926566e-01  -3.6173118390056802e-01  -3.5487313106592333e-01  -3.4918814267495896e-01  -3.4505006732331495e-01  -3.4172909626571196e-01  -3.3961431427695221e-01  -3.3799191412146168e-01  -3.3784825953911862e-01  -3.3811447107219006e-01  -3.3943355935957714e-01  -3.4156911604922752e-01  -3.4473746738201094e-01  -3.4909297573172643e-01  -3.5460297569288063e-01  -3.6139870445465139e-01  -3.6939101330180474e-01  -3.7852620737908643e-01  -3.8878582911287801e-01  -3.9942739385713288e-01  -4.1079274549676209e-01  -4.2211491695875897e-01  -4.3302979650619333e-01  -4.4328697798612871e-01  -4.5296874060835896e-01  -4.6130133480465974e-01  -4.6885989791870492e-01  -4.7535595240661088e-01  -4.8075964135431104e-01  -4.8596369240235521e-01  -4.9077966723939481e-01  -4.9580788442670776e-01  -5.0167922115919938e-01  -5.0890856223463621e-01  -5.1780776046189381e-01  -5.2907127141427002e-01  -5.4265435207176571e-01  -5.5919641207542725e-01  -5.7839649931449644e-01  -6.0075513855954965e-01  -6.2612670484273436e-01  -6.5450624309448713e-01  -6.8591978411222776e-01  -7.1968702347774383e-01  -7.5503059014153273e-01  -7.8970117043859622e-01  -8.2808468517290157e-01  5.6220801756391259e-01  5.6124997656115827e-01  5.5929807726411307e-01  5.5654094850507607e-01  5.5232199650274671e-01  5.4639018526640992e-01  5.3804840331740433e-01  5.2695369561478034e-01  5.1197846679027137e-01  4.9294732446044687e-01  4.6907594682907033e-01  4.3948587792027377e-01  4.0594279496730723e-01  3.6732751654632040e-01  3.2643111865439806e-01  2.8500303608547894e-01  2.4435437062888024e-01  2.0538816877595029e-01  1.7246262923246733e-01  1.4255916020764120e-01  1.1972384102376414e-01  1.0117023922543922e-01  8.7908371488579856e-02  7.6553309811867892e-02  6.9335441199341888e-02  6.1967390434366332e-02  5.4418240731680674e-02  4.2969582548225672e-02  2.9114608790091947e-02  1.1648613005344248e-02  -9.5021205233994897e-03  -2.4577733441964959e-02  -3.1627880976047566e-02  -2.2079810621332727e-02  4.3663020134214383e-03  4.7052988027073528e-02  9.9324196954052299e-02  1.5403436797553807e-01  2.0581131059685262e-01  2.5005391776503177e-01  2.7753123026123627e-01  2.9319658169461232e-01  2.8076886246062127e-01  2.5800638738509368e-01  2.3520540652417593e-01  2.1188029335749414e-01  1.8683528294564580e-01  1.5795970677945081e-01  1.2637304765581833e-01  9.3036033341076782e-02  6.5290507447557475e-02  4.8694706063864973e-02  5.2118168874352354e-02  8.5074997060030799e-02  1.3424510399002890e-01  1.8810893020962330e-01  2.3409722526391230e-01  2.6003702255651634e-01  2.6693416773601669e-01  2.5581818101424952e-01  2.3410703527040180e-01  2.0303623627481551e-01  1.6199427080285170e-01  1.1527085594243867e-01  6.2255870043808288e-02  1.7404753424953123e-02  -1.4680677406595738e-02  -1.8757984553098943e-02  5.8244844786308854e-03  5.3851771030557778e-02  1.0575870340287719e-01  1.5152064254577524e-01  1.8728881041625609e-01  2.0682013353941120e-01  2.0891089471505278e-01  1.9812462514005702e-01  1.7022542572529387e-01  1.3070280518774502e-01  8.9972620299097583e-02  4.5759993848470418e-02  7.8607032068844073e-03  -1.5958247284237781e-02  -2.5962135523314788e-02  -1.9541148042563579e-02  1.0334338021409689e-04  2.8787991300923348e-02  6.0082982435343261e-02  9.0274574637476582e-02  1.1524527129911011e-01  1.3287484423638424e-01  1.4088522532076483e-01  1.3852027937610892e-01  1.2562038722475510e-01  1.0585769898996968e-01  8.0659933164408615e-02  5.4564808333568228e-02  3.0213063794717776e-02  1.2754418115841130e-02  0.0000000000000000e+00  0.0000000000000000e+00  0.0000000000000000e+00  0.0000000000000000e+00  0.0000000000000000e+00  0.0000000000000000e+00  0.0000000000000000e+00  0.0000000000000000e+00  0.0000000000000000e+00  0.0000000000000000e+00  0.0000000000000000e+00  0.0000000000000000e+00  0.0000000000000000e+00  0.0000000000000000e+00  0.0000000000000000e+00  0.0000000000000000e+00  5.4182533623566556e-03  4.5574735692932525e-03  -3.9990286626396159e-03  -1.6223682739646510e-02  -2.9921037480989059e-02  -4.2996051780967694e-02  -5.0937050724398011e-02  -5.0980083415448643e-02  -4.1219454486663393e-02  -1.9632438358303844e-02  1.1768631377554141e-02  4.5406790271798267e-02  8.1905609712260713e-02  1.1377125311154103e-01  1.3598555866422674e-01  1.4992921196503309e-01  1.5060859761430240e-01  1.4073260031073032e-01  1.1548483383207760e-01  8.4270221004100351e-02  4.7832124007267621e-02  1.2113417619930076e-02  -1.3035489505672149e-02  -2.1030580389010321e-02  -9.2881359411602152e-03  2.8520689605824098e-02  7.6707058765063937e-02  1.3211138559841634e-01  1.8170445253605852e-01  2.2300050853995962e-01  2.4641540281735708e-01  2.5190397574065643e-01  2.3694533457262507e-01  2.0211171004863529e-01  1.4659077845840604e-01  9.1404337216118167e-02  4.1597179406887536e-02  1.5240105078408395e-02  1.8302329749234632e-02  4.0423494819611903e-02  7.3954533632329525e-02  1.1123484592570812e-01  1.4620986040431591e-01  1.7774041291809664e-01  2.0575386606160312e-01  2.3008340621885209e-01  2.4835492270087778e-01  2.5805538549689105e-01  2.5615271913839988e-01  2.4171976175152088e-01  2.1703250878876043e-01  1.8373730270181296e-01  1.5224251653122592e-01  1.2787306419426769e-01  1.1143269449628990e-01  9.8379996130423350e-02  8.6402926540426847e-02  7.8912647362590557e-02  9.6201513671831385e-02  1.3191215956203031e-01  1.7548975972093517e-01  2.2504265376486873e-01  2.6358439628756608e-01  2.9152147445295151e-01  2.9500311552146574e-01  2.8444672457143716e-01  2.5820267408087949e-01  2.2261900741564603e-01  1.7929023055752794e-01  1.3717025724285545e-01  9.5871050281433876e-02  5.7646217943840755e-02  2.7403355892821068e-02  4.0480951236334028e-03  -1.1145748209580626e-02  -1.7814421888730583e-02  -1.6056770551875842e-02  -7.4060057620752044e-03  9.3614485483461268e-03  3.3612333592097920e-02  6.2919736299942616e-02  9.8278930779802431e-02  1.3702557773105711e-01  1.7719027522465775e-01  2.1755699538515041e-01  2.5627563998268366e-01  2.9210333247354814e-01  3.2314592852946500e-01  3.5046278716971435e-01  3.7242489587498773e-01  3.8970726044175441e-01  4.0355343465846355e-01  4.1336379335385093e-01  4.2078647790060436e-01  4.2564929517076849e-01  4.2888149541013715e-01  4.3077475500166523e-01  4.3180468800374816e-01  4.3229619450093210e-01  4.3330769462903013e-01  4.3704957999936328e-01  4.4475485405505427e-01  4.5736059466481727e-01  4.7577574025962233e-01  5.0015058639260879e-01  5.3044420322161701e-01  5.6614215711661442e-01  6.0643180336674196e-01  6.4922399106940887e-01  6.9297150262022111e-01  7.3478953675549741e-01  7.7177847961248147e-01  8.0220168171675055e-01  8.2430980743184490e-01  8.3382263646225718e-01  8.3350269230053431e-01  8.2250737952640762e-01  8.0222421068411620e-01  7.7599571306061166e-01  7.4451630499098098e-01  7.1178954423769281e-01  6.7910007889527402e-01  6.4922564007004713e-01  6.2301504224878801e-01  6.0162948469110311e-01  5.8530398280164142e-01  5.7389321301278029e-01  5.6719138534857827e-01  5.6360856027164241e-01  5.6279798004645110e-01  2.9632287113992556e-01  3.0670089885114293e-01  3.1369689489783098e-01  3.0608178644508227e-01  2.9026555944777443e-01  2.5374791626092424e-01  1.9502235200738616e-01  1.3461199279078592e-01  9.2470851890966682e-02  6.8758527691026555e-02  6.2505389827906904e-02  5.5959749029130444e-02  5.0681575794977680e-02  5.2905017223330388e-02  6.2934347236040550e-02  7.4016824028268161e-02  4.0103215171356274e-02  -9.0947791069386930e-03  -6.8892025147988280e-04  1.9392721432964759e-02  6.4868764055499807e-03  3.2321445970052681e-02  4.9058196619446805e-02  -1.1508110001376376e-01  1.7231102659799630e-01  -1.9524702888710674e-01  -6.2548474129453205e-02  1.3546578648923202e-02  1.8971114452346444e-01  -4.0882129849609324e-02  -2.2170702444701113e-02  2.0840573841758309e-01  1.0944264169510751e-01  -1.5381039140832020e-01  2.3301528810613242e-01  -1.1674376550727945e-01  2.1489017234162150e-01  9.8121723726251248e-02  -2.3337784281014507e-02  1.5812594495817428e-01  1.6264704932026053e-01  2.8652621448415866e-01  9.7731256346278203e-02  -4.8440241020645161e-02  -7.5558629346487827e-02  4.8370259050611788e-03  1.3512528344717728e-01  1.1027531202601829e-01  1.2215323083512322e-01  1.3264656882179174e-01  1.7436337928801521e-01  -5.0293406920617597e-03  4.4491341244978716e-03  2.6210642989358688e-02  9.8073110108577218e-03  1.1313946326256326e-02  -8.6630032498972498e-02  4.6433620420168208e-02  -1.1988914725203024e-02  -5.8228141774814633e-02  -2.5693061705525023e-02  -5.0250750994077768e-02  -9.4429766267762380e-02  7.5058031322840821e-02  2.8058871279167141e-01  2.9942135969785381e-03  8.6030272174413877e-02  4.9875622352270776e-02  2.9336567138721081e-02  2.3504788888709088e-01  2.9251279825396664e-01  2.6140076831656905e-01  8.6488977315123991e-02  8.8514069538613349e-02  2.5893450416147362e-01  -5.5928065668289874e-02  -4.3558249586157352e-02  2.0688844621669887e-02  1.3467317635336665e-01  1.4657033614838763e-01  1.8939170891715515e-01  -9.1605552249498651e-02  -2.0436403230805835e-02  7.2404764079088718e-02  1.7202219187673168e-01  -1.0440742494026323e-01  2.0265113753053465e-02  8.7109333989269355e-03  2.0382482438240374e-01  1.0292348113373800e-02  -7.2918341814177598e-02  2.1721374061138410e-01  -1.4887736696974851e-01  5.3590342702412308e-02  1.0258766512172610e-01  2.2376371532596642e-01  2.3300177227206317e-01  1.2423100111976655e-02  1.0726407434657137e-01  1.9299695537157327e-01  4.8977742859610297e-02  -4.5506589690878368e-02  1.6822085720084515e-01  -1.7712489591937837e-02  1.5705605380776907e-01  4.1097334595091871e-02  -1.5970518955251835e-02  -2.3315438332722704e-01  1.8339757179267108e-01  9.2082937100930004e-02  -2.9067060375817497e-02  -1.6224435246657943e-02  2.0188406771497022e-01  1.4514846309132587e-01  3.4892509148366855e-04  -5.9767042722360365e-02  6.7197024151108120e-02  -4.4748328013642674e-02  7.1903017183477413e-02  -6.7217973678544887e-02  2.4890903991430537e-02  1.3028555624713750e-01  1.7294330138656777e-01  -3.9686192408491285e-02  -5.1238555633864147e-02  2.7221779951925821e-02  7.8285491129163512e-02  4.0539762120280882e-02  1.5931708992216038e-02  1.4093630991249853e-01  1.3811755309261958e-01  2.7132901101118384e-01  -3.4900132241078984e-02  -2.9408663452389575e-02  3.6872361923242676e-02  -2.4087223410441096e-02  8.5258303956998016e-02  3.5799923588981285e-02  9.7731117558788647e-02  1.2429384631898018e-01  2.0077661497908208e-02  2.2937705187134100e-01  1.4335380221709099e-01  -1.0184590373110303e-01  1.8076135039843347e-01  1.4493101468018899e-01  9.9423751694027146e-02  -8.7823565053364323e-03  4.7830443366123694e-02  1.3848315196471969e-01  -5.1258968044136183e-02  -1.6155334456341144e-01  -8.0199976394960931e-02  -1.3287940263544371e-01  2.6833224921386323e-01  1.6010796370670780e-02  6.9643443075854308e-02  3.0223006488346388e-01  4.8066700793254298e-03  2.6859802599223565e-01  -3.9007098475162460e-03  1.5038398164628311e-01  1.5935489519107471e-01  1.7044746225995194e-01  1.0223027413527203e-01  2.6149701158950167e-01  -1.3206668708356245e-01  6.0181307655841038e-02  4.8972724970833215e-02  -2.1013795860742457e-01  1.1650866828700167e-02  -1.4861796575722016e-03  7.2526283130368449e-02  1.3976819540022123e-01  1.0149976414505346e-01  1.7379411025134791e-02  5.2404215128466748e-02  -1.0300984244342649e-01  1.3294990393696626e-01  2.4608774834416389e-03  -5.9233026824479437e-02  1.6326359382115171e-01  4.8598904788128422e-03  9.7528265328428957e-03  2.3619573203314290e-01  2.1139641935114398e-01  6.3373162034947333e-02  -1.3818829584798947e-01  2.0077716258894557e-01  -6.0338497692878322e-02  1.4074634349643120e-01  2.7422651440781071e-02  1.0680802912127939e-01  7.6376833714171963e-02  -9.7005361161315220e-03  2.9252815267365270e-02  1.0059319723629739e-01  1.2228969921106905e-01  1.7421891742509207e-01  7.5255272709491269e-02  -8.0553690605028178e-02  2.9598767908295864e-01  8.1864305036333865e-03  8.7251741208450542e-02  1.7779554877175491e-02  -3.0439208277001129e-02  -6.9075414730300683e-02  2.0500004323112334e-02  -1.5761432548530633e-02  1.2202964405273091e-01  8.6023660473333527e-02  1.6090875187264811e-01  4.7888704259242215e-02  7.2249455137156299e-03  -1.1602615636481955e-01  -2.0607738466335668e-02  2.3684579772024403e-01  1.5035920496762997e-01  1.5082094039184511e-02  -4.4018649626781148e-02  -3.5820260206445131e-02  -1.1974165809910405e-01  -1.0595610706475979e-01  -1.2574288423851193e-01  1.0334372330076327e-02  1.6589409435164837e-01  5.9967995749914245e-02  1.3053844487029739e-01  1.6895036694112064e-01  3.9465183826950412e-02  1.4139975027099286e-01  2.6427577820312920e-01  6.2318727755388062e-02  -6.9205403716905726e-03  2.1829592229702974e-02  -1.4630217843800436e-01  -1.1907671521391798e-02  2.4084423216426964e-02  1.2353935510428903e-01  2.1469408896265191e-01  2.2273928894314962e-01  -5.2952208919770601e-02  -5.9335779122973359e-02  2.1687564976438634e-01  1.1377907807022214e-01  2.3000391638207485e-01  6.6158182059898249e-02  1.3364173151283126e-01  4.4749386712292810e-02  6.8447974608856585e-02  3.0998023448212227e-02  2.3433148267053847e-01  8.5362110391822531e-03  2.0179952408973539e-01  1.9115308859155467e-02  2.6325392064248876e-01  1.0273136092592512e-01  1.1632249656525154e-01  9.6588683277166132e-02  8.8783591747250951e-02  2.8350756565567559e-01  -5.5394733600512197e-02  -4.1764045904063386e-02  1.6579308623882485e-02  6.5879691075839825e-02  2.5858176913701614e-01  -3.8125701659207520e-02  -5.4324676076252507e-02  3.6065753941659645e-02  -2.2123345145302800e-02  -8.7991995421282151e-02  -1.8132779363481295e-02  -1.3385250251785445e-02  8.5398251989775423e-02  2.6287695189628796e-01  6.5545319877895275e-02  7.5512689325863441e-02  -1.2335745371391118e-02  -3.7753090619044916e-02  2.5945151764036134e-01  -2.9367738574947927e-02  1.1826786485302371e-01  2.7437248661097074e-01  6.0131464211618135e-02  1.0811477512433913e-01  -9.5968370440878706e-02  -8.9830987777620511e-02  2.0926115858114303e-01  1.7683190112447361e-01  -1.8767976725466134e-02  6.5855870157001034e-02  4.0876218349731847e-02  1.3049270195168602e-01  2.0128727607568963e-02  -2.5255401604187176e-02  -6.6939002341955323e-02  -1.7622085589576261e-01  2.7526145870185248e-01  1.1889962523640665e-01  7.2010510135781886e-02  1.4622170778867048e-02  7.3353363516216893e-02  3.1615488229275418e-01  9.6198909867487945e-03  2.4792696053230626e-01  1.2291807658766130e-01  -1.9067185424604274e-01  1.0620523978506565e-02  9.9007363230930706e-02  1.4682259400461379e-02  5.4214072743014791e-02  5.5370947145613678e-02  -9.2849151277448833e-02  3.0762163728739786e-02  2.1550094255221922e-01  -1.8295092303961705e-02  -3.4192646469947900e-02  1.2569734175246983e-01  2.2996248043884679e-01  1.3251310456655327e-01  1.7664932085228041e-01  -9.4675960187757743e-04  -3.4784345338154429e-02  1.1025258925994827e-01  1.9663655832963337e-01  1.6312154036616391e-01  2.6002765428607499e-01  -7.3995617342061795e-02  -9.3597705168712186e-02  1.0432338235407256e-01  8.0531312110572045e-03  3.2479631907369716e-02  1.6471396201813416e-02  5.9757615908333311e-02  1.3351666713125787e-01  2.8575878499187457e-01  2.2427869227471683e-01  1.5812453451069358e-01  2.2347088770903964e-01  1.7949776044505880e-01  2.6322585348196975e-01  -8.7417207047623971e-02  1.7104958880324023e-01  1.8915451055028182e-01  1.5400405881547299e-01  -1.1352300331833522e-02  4.1617029717996752e-03  -1.0925681525863233e-01  1.9865562776086876e-01  7.2057495971895216e-02  -9.5730217442243620e-03  7.9808387132849046e-02  4.7402758316758282e-02  -7.6138290342427278e-02  1.1902135454923427e-01  -7.5087198863953951e-03  9.3222625635128883e-02  1.1898949200567124e-02  -9.4584683174009782e-02  -7.0691671797437905e-02  1.9138236861124119e-01  1.0446972681774572e-01  6.5322280234227148e-02  1.0584737824298487e-01  -3.9866804459810522e-02  -2.6332173972456346e-03  6.1934024109175277e-02  -7.4586283040303680e-02  1.6183247686594590e-01  6.1746180064019940e-02  1.3497660829265412e-01  -5.2700065778472457e-02  2.1820379917499751e-02  4.7172774290225525e-02  -7.5807466653956797e-03  -2.1941558144703294e-02  1.5070665323859153e-01  -1.4333015674766017e-02  -1.1856978793605583e-01  8.5918676270343476e-03  1.6463987804017144e-01  2.1405192358881633e-01  -1.4940864053459997e-02  6.1854095398677818e-02  1.7105973640778330e-01  1.7444953612908487e-01  -5.5837033593667970e-02  2.6715819627206719e-02  -1.4306834392467065e-02  8.5888150793871396e-02  -2.5657743450306564e-01  -8.0748101638604228e-02  5.2695626385398771e-02  1.7567608134133000e-01  1.0458901306913176e-01  5.9414580873723068e-02  -7.3414526493875296e-02  -4.4360655601512512e-02  -2.1877854342230930e-02  3.1537000821762209e-02  -2.6413246363456117e-02  5.4959436196387844e-02  -3.2392808610214666e-02  -1.2010949888370359e-01  1.6581814740224537e-01  2.3602064544152712e-01  -1.2483088183582824e-02  -6.6719319395776286e-02  9.0742151652234287e-02  1.3807957216051539e-02  1.5742428774389330e-01  -3.4806979114795161e-02  1.4988081681963503e-01  7.0601294120851102e-02  1.5280518793024553e-01  5.5527559535305533e-02  -5.3894685516908382e-02  7.4290619175342784e-02  8.0726778092158960e-02  -9.1134231627107334e-02  -8.3822791213878700e-02  -1.9292671936330573e-02  2.7098781643849167e-02  -1.2034625504723739e-02  1.7106885067461861e-01  2.8044782461358631e-01  -1.2047333719082400e-02  1.3604990871643616e-01  5.0911000255977314e-02  2.2920266411255905e-01  1.1410783391618532e-02  -1.5248123785860025e-02  1.9530318551810377e-01  1.9017397085210087e-02  -1.9766111670420680e-02  2.0563565862866881e-01  2.3465699899948722e-01  -2.0973324753686656e-02  1.5652629058128725e-01  8.8869461428633997e-03  -4.7416631337845322e