<?xml version="1.0"?>
<VTKFile type="UnstructuredGrid"  version="0.1"  >
<UnstructuredGrid>
<Piece  NumberOfPoints="4820" NumberOfCells="9262">
<Points>
<DataArray  type="Float64"  NumberOfComponents="3"  format="ascii">0.004357787137382907 0.04980973490458728 0  3.061616997868383e-18 0.05 0  -0.004357787137382901 0.04980973490458728 0  -0.004357787137382912 -0.04980973490458728 0  -9.184850993605149e-18 -0.05 0  0.004357787137382894 -0.04980973490458728 0  -0.2 -0.2 0  0.55 -0.2 0  2 -0.2 0  2 0.21 0  0.55 0.21 0  -0.2 0.21 0  0.002180969358710071 0.04995241107951016 0  -0.002180969376377175 0.04995241107873878 0  -0.00218096936205605 -0.04995241107936408 0  0.002180969376762267 -0.04995241107872198 0  -0.00681459716460041 0.04953343583362881 0  -0.009254746165878699 0.04913603233275104 0  -0.01167226821331763 0.04861849601495686 0  -0.01406125270101674 0.04798209220613614 0  -0.01641585879600313 0.04722837685110179 0  -0.01873032971283131 0.04635919271135586 0  -0.02099900679895535 0.04537666485604058 0  -0.02321634335656028 0.04428319547131056 0  -0.02537691821523419 0.04308145798249308 0  -0.02747544897576464 0.04177439052314415 0  -0.0295068049360126 0.04036518874560236 0  -0.03146601963036187 0.03885729800979068 0  -0.03334830296690066 0.03725440496408185 0  -0.03514905295182857 0.03556042852089316 0  -0.03686386691867947 0.03377951029547187 0  -0.03848855232085789 0.03191600445301051 0  -0.04001913696023074 0.02997446708380811 0  -0.04145187870654155 0.02795964505672717 0  -0.04278327464009846 0.02587646442367869 0  -0.04401006963121561 0.02373001835346012 0  -0.04512926428658137 0.02152555469556806 0  -0.04613812228218922 0.0192684631528764 0  -0.04703417705848439 0.01696426209509693 0  -0.04781523785065199 0.0146185850644164 0  -0.04847939503850856 0.01223716702101564 0  -0.04902502482533359 0.009825830289366174 0  -0.04945079319725205 0.00739047036139188 0  -0.04975565919278197 0.004937041451287537 0  -0.04993887744399172 0.002471541954727039 0  -0.05000000000000002 -2.179027782864273e-10 0  -0.04993887742290181 -0.002471542380860383 0  -0.04975565915220143 -0.004937041860259632 0  -0.04945079313853181 -0.007390470754298181 0  -0.04902502474990915 -0.009825830665689136 0  -0.04847939494791073 -0.01223716737993267 0  -0.04781523774597484 -0.01461858540679994 0  -0.04703417694176702 -0.01696426241870103 0  -0.04613812215449838 -0.01926846345863071 0  -0.04512926414810409 -0.02152555498589172 0  -0.04401006948618459 -0.02373001862243695 0  -0.04278327448542859 -0.02587646467940464 0  -0.04145187854660255 -0.0279596452938465 0  -0.04001913680095092 -0.02997446729646378 0  -0.03848855215910903 -0.03191600464806871 0  -0.03686386675419343 -0.0337795104749769 0  -0.03514905278746659 -0.03556042868335375 0  -0.0333483028093871 -0.0372544051050802 0  -0.03146601947545011 -0.03885729813523576 0  -0.02950680478964417 -0.04036518885259716 0  -0.02747544883924331 -0.04177439061293563 0  -0.0253769180845661 -0.04308145805946247 0  -0.02321634324304243 -0.04428319553082456 0  -0.02099900669895044 -0.04537666490231995 0  -0.01873032963061061 -0.04635919274457518 0  -0.01641585872377311 -0.04722837687620784 0  -0.01406125264610136 -0.04798209222222922 0  -0.01167226817214395 -0.04861849602484179 0  -0.009254746140787012 -0.04913603233747704 0  -0.006814597153124481 -0.04953343583520761 0  0.006814597163087254 -0.04953343583383697 0  0.009254746162416328 -0.04913603233340317 0  0.01167226820749043 -0.04861849601635584 0  0.01406125269526824 -0.04798209220782076 0  0.01641585878869484 -0.04722837685364205 0  0.01873032970478165 -0.04635919271460813 0  0.02099900678940205 -0.04537666486046157 0  0.02321634334324823 -0.04428319547828967 0  0.02537691819928517 -0.04308145799188777 0  0.02747544895679411 -0.04177439053562125 0  0.02950680491571239 -0.04036518876044175 0  0.03146601960788315 -0.03885729802799359 0  0.03334830294823126 -0.03725440498079377 0  0.03514905293079007 -0.03556042854168828 0  0.03686386690162479 -0.03377951031408381 0  0.03848855230703181 -0.03191600446968382 0  0.04001913694627814 -0.02997446710243633 0  0.04145187869083342 -0.02795964508001545 0  0.04278327462632659 -0.02587646444644864 0  0.04401006962056583 -0.02373001837321138 0  0.04512926427712953 -0.02152555471538427 0  0.04613812227399118 -0.01926846317250652 0  0.04703417705106056 -0.01696426211567986 0  0.04781523784312168 -0.01461858508904696 0  0.04847939503319636 -0.01223716704206073 0  0.04902502482144694 -0.009825830308758294 0  0.04945079319422288 -0.007390470381660498 0  0.0497556591909245 -0.004937041470007301 0  0.04993887744294273 -0.002471541975922472 0  0.05000000000000002 1.960026680888904e-10 0  0.04993887742406512 0.002471542357355427 0  0.0497556591543939 0.004937041838163785 0  0.04945079314184119 0.007390470732154637 0  0.04902502475403982 0.009825830645079567 0  0.04847939495309415 0.01223716735939779 0  0.04781523775084436 0.01461858539087247 0  0.04703417694693356 0.01696426240437658 0  0.04613812215952091 0.01926846344660432 0  0.04512926415455419 0.02152555497236883 0  0.04401006949386337 0.02373001860819578 0  0.04278327450092428 0.0258764646537846 0  0.04145187856220046 0.02795964527072164 0  0.04001913681616228 0.02997446727615497 0  0.03848855217730672 0.03191600462612355 0  0.03686386677147228 0.03377951045612033 0  0.03514905280168957 0.03556042866929533 0  0.0333483028196165 0.03725440509592335 0  0.03146601948352148 0.03885729812869969 0  0.02950680480117144 0.04036518884417076 0  0.02747544884918156 0.04177439060639914 0  0.02537691809390653 0.04308145805396053 0  0.02321634324922249 0.04428319552758454 0  0.02099900670813883 0.04537666489806784 0  0.01873032963827596 0.04635919274147818 0  0.01641585873206496 0.04722837687332573 0  0.01406125264532184 0.04798209222245766 0  0.01167226817007835 0.04861849602533769 0  0.009254746139683721 0.04913603233768484 0  0.006814597151967234 0.04953343583536681 0  -0.1875196675247935 -0.2 0  -0.1748316574073939 -0.2 0  -0.1619325191073485 -0.2 0  -0.1488187266915765 -0.2 0  -0.1354867190390691 -0.2 0  -0.1219328601465505 -0.2 0  -0.1081534589822707 -0.2 0  -0.09414476550972861 -0.2 0  -0.07990295838040007 -0.2 0  -0.06542416251428446 -0.2 0  -0.05070442829752772 -0.2 0  -0.03573975778997357 -0.2 0  -0.02052606446908414 -0.2 0  -0.005059208186730002 -0.2 0  0.0106650220181323 -0.2 0  0.02665090828184707 -0.2 0  0.04290281009001662 -0.2 0  0.05942514756265038 -0.2 0  0.07622242703544463 -0.2 0  0.09329921759985482 -0.2 0  0.110660176225582 -0.2 0  0.1283100240439488 -0.2 0  0.146253576648871 -0.2 0  0.1644957213272042 -0.2 0  0.1830414174264912 -0.2 0  0.2018957247245375 -0.2 0  0.2210637776854531 -0.2 0  0.2405507899571802 -0.2 0  0.2603620802338072 -0.2 0  0.2805030369240936 -0.2 0  0.3009791461642926 -0.2 0  0.3217959913512258 -0.2 0  0.3429592352388189 -0.2 0  0.3644746444814039 -0.2 0  0.3863480802046066 -0.2 0  0.4085854997083186 -0.2 0  0.4311929582382759 -0.2 0  0.4541766169094176 -0.2 0  0.4775427325114808 -0.2 0  0.5012976686781503 -0.2 0  0.5254479007761028 -0.2 0  0.5750000000714078 -0.2 0  0.6000000001173931 -0.2 0  0.6250000002059986 -0.2 0  0.6500000002385247 -0.2 0  0.675000000336103 -0.2 0  0.7000000003686291 -0.2 0  0.7250000004542437 -0.2 0  0.7500000005062106 -0.2 0  0.7750000005716368 -0.2 0  0.8000000006490264 -0.2 0  0.8250000006890297 -0.2 0  0.8500000007910944 -0.2 0  0.8750000008565204 -0.2 0  0.9000000009518555 -0.2 0  0.9250000010408349 -0.2 0  0.9500000011343006 -0.2 0  0.9750000012251494 -0.2 0  1.000000001296183 -0.2 0  1.0250000013646 -0.2 0  1.050000001466665 -0.2 0  1.075000001557888 -0.2 0  1.100000001673038 -0.2 0  1.125000001762017 -0.2 0  1.150000001851744 -0.2 0  1.175000001947827 -0.2 0  1.200000002046153 -0.2 0  1.225000002155695 -0.2 0  1.25000000221813 -0.2 0  1.275000002244301 -0.2 0  1.300000002154947 -0.2 0  1.325000002108962 -0.2 0  1.350000002019609 -0.2 0  1.375000001973624 -0.2 0  1.400000001884271 -0.2 0  1.42500000182707 -0.2 0  1.450000001748932 -0.2 0  1.475000001659579 -0.2 0  1.500000001570226 -0.2 0  1.525000001480872 -0.2 0  1.550000001391519 -0.2 0  1.575000001345534 -0.2 0  1.60000000125618 -0.2 0  1.625000001210195 -0.2 0  1.650000001120842 -0.2 0  1.675000001066632 -0.2 0  1.700000000985504 -0.2 0  1.725000000905871 -0.2 0  1.750000000850165 -0.2 0  1.775000000760812 -0.2 0  1.800000000714827 -0.2 0  1.825000000625473 -0.2 0  1.85000000053612 -0.2 0  1.875000000446767 -0.2 0  1.900000000357413 -0.2 0  1.92500000026806 -0.2 0  1.950000000178707 -0.2 0  1.975000000089353 -0.2 0  2 -0.1758823529236379 0  2 -0.1517647057870068 0  2 -0.1276470586430415 0  2 -0.103529411528254 0  2 -0.07941176439513059 0  2 -0.05529411724717925 0  2 -0.03117647008918309 0  2 -0.007058822960843009 0  2 0.01705882406928105 0  2 0.0411764710640091 0  2 0.06529411804247409 0  2 0.08941176503720205 0  2 0.11352941203193 0  2 0.137647059026658 0  2 0.1617647060111818 0  2 0.185882353005272 0  1.974999999927471 0.21 0  1.949999999833257 0.21 0  1.924999999782412 0.21 0  1.899999999688198 0.21 0  1.874999999637353 0.21 0  1.849999999543139 0.21 0  1.824999999448926 0.21 0  1.799999999354712 0.21 0  1.774999999260499 0.21 0  1.749999999166286 0.21 0  1.724999999082914 0.21 0  1.699999998977859 0.21 0  1.674999998902712 0.21 0  1.649999998789432 0.21 0  1.624999998688863 0.21 0  1.599999998581938 0.21 0  1.574999998495201 0.21 0  1.549999998413699 0.21 0  1.524999998318364 0.21 0  1.499999998273501 0.21 0  1.474999998238357 0.21 0  1.449999998189755 0.21 0  1.424999998038714 0.21 0  1.399999997975905 0.21 0  1.37499999792992 0.21 0  1.349999997902628 0.21 0  1.324999997821126 0.21 0  1.299999997699994 0.21 0  1.274999997636438 0.21 0  1.249999997681301 0.21 0  1.224999997765794 0.21 0  1.199999997857764 0.21 0  1.174999997916835 0.21 0  1.149999998014039 0.21 0  1.124999998067875 0.21 0  1.09999999816508 0.21 0  1.074999998218916 0.21 0  1.049999998316121 0.21 0  1.02499999838865 0.21 0  0.999999998467161 0.21 0  0.9749999985209969 0.21 0 
[...]
<PointData  Scalars="pressure"> 
<DataArray  type="Float64"  Name="pressure"  format="ascii">-2.4873320915099244e+00  -1.6431406719070576e+00  -1.6727516055552079e+00  -6.1878928303388159e-01  -6.9589328664658578e-01  5.0411327139145534e-01  6.4406777156331307e-01  2.2491491303510949e-01  0.0000000000000000e+00  0.0000000000000000e+00  3.2189081004045117e-01  3.9209530041038826e-01  -2.0794184484519640e+00  -1.3656403744630168e+00  -1.0749013311597204e+00  -1.7984052382451171e-01  -1.4190364471420007e+00  -1.3689109484819735e+00  -1.3301606107975248e+00  -1.2891019070264402e+00  -1.2404581761815758e+00  -1.1776729782758921e+00  -1.1033891266757618e+00  -1.0165835559533838e+00  -9.1233741496395471e-01  -7.9116674488955419e-01  -6.5578451861510978e-01  -5.1073846248837196e-01  -3.5396368818475543e-01  -1.8064315481853888e-01  -4.6778749462273754e-03  1.8201520888355519e-01  3.6975313182703623e-01  5.5549954364375254e-01  7.4692855113504975e-01  9.2578894199906969e-01  1.1048246199457086e+00  1.2722997202344435e+00  1.4252459256055805e+00  1.5678512921491186e+00  1.6915993950809296e+00  1.7971379754380983e+00  1.8844832215948508e+00  1.9525211486766370e+00  1.9948194418931431e+00  2.0168794250770361e+00  2.0169920631723173e+00  1.9937305016521392e+00  1.9495804692489793e+00  1.8836623408049853e+00  1.7994350403669532e+00  1.6986024422841139e+00  1.5784159152897652e+00  1.4475721159207002e+00  1.3020655690555718e+00  1.1460773337064705e+00  9.8436429024456318e-01  8.1651051646668960e-01  6.4977279792414222e-01  4.8249877049268525e-01  3.1128590590498900e-01  1.5978430630291798e-01  -2.9686247695891121e-03  -1.4289997288508799e-01  -2.7862838843544868e-01  -3.9680834750761934e-01  -5.0858211363639960e-01  -5.9960034128645157e-01  -6.7920556141248245e-01  -7.4183210128244159e-01  -7.8506847199649477e-01  -8.1425501797033140e-01  -8.2144526389138628e-01  -8.1327118235144313e-01  -7.7150488797141969e-01  1.7153519075133047e-01  6.4850685898866167e-02  -7.7297321200605661e-03  -6.2497833694265308e-02  -1.0673844873054728e-01  -1.4457321844576987e-01  -1.7827952971300140e-01  -2.0974702435746556e-01  -2.3899561381137588e-01  -2.6736928508274027e-01  -2.9513146732082363e-01  -3.2282201863184562e-01  -3.5010686277975261e-01  -3.7707159863051593e-01  -4.0242308871653110e-01  -4.2559528250870016e-01  -4.4555496322693855e-01  -4.6150954660698118e-01  -4.7260400832439370e-01  -4.7860660371446745e-01  -4.7989467571776601e-01  -4.7629072882792206e-01  -4.6839237867674666e-01  -4.5792664903001495e-01  -4.4610660789150819e-01  -4.3415142091327347e-01  -4.2309720976640247e-01  -4.1344707194162400e-01  -4.0728729454409207e-01  -4.0397851908954280e-01  -4.0340651297048175e-01  -4.0575446201747201e-01  -4.1054969182833156e-01  -4.1745863611710310e-01  -4.2642214046420662e-01  -4.3709450247268361e-01  -4.4916357528152567e-01  -4.6304259471702852e-01  -4.7891028309633005e-01  -4.9781730251990169e-01  -5.1913799314225950e-01  -5.4531075857377531e-01  -5.7602242011491278e-01  -6.1101319462851034e-01  -6.5208191173299301e-01  -6.9540688703491738e-01  -7.4589863329481554e-01  -8.0055481772279036e-01  -8.5977612623417887e-01  -9.2684917268087630e-01  -1.0008577409646369e+00  -1.0832666666657287e+00  -1.1743456912522945e+00  -1.2738837862371173e+00  -1.3823169822623551e+00  -1.4993663733775868e+00  -1.6304359067238410e+00  -1.7844406370642283e+00  -1.9692151479608906e+00  6.4413128180781565e-01  6.4505492898077077e-01  6.4568069808023931e-01  6.4603652882093343e-01  6.4516478919128228e-01  6.4253733218939191e-01  6.3719299475574986e-01  6.2864457753856029e-01  6.1578202542119209e-01  5.9836463701859777e-01  5.7597365427602532e-01  5.4754123557683132e-01  5.1565345301434773e-01  4.7915301230783125e-01  4.4100901843099161e-01  4.0381195967899319e-01  3.6750407000863161e-01  3.3813203273486442e-01  3.1480275670360724e-01  2.9943018754896428e-01  2.9573404440863732e-01  3.0163012740742634e-01  3.1676456463075564e-01  3.4294346649450114e-01  3.7603596221923946e-01  4.1323000901471663e-01  4.4785703007743399e-01  4.7410292813980759e-01  4.8934978774411986e-01  4.9102216381496722e-01  4.7167813695464550e-01  4.3525039131368237e-01  3.7890660271150101e-01  3.1965445895187805e-01  2.5804008631458403e-01  2.1318814003444414e-01  1.8357862637597594e-01  1.6707443293377069e-01  1.6228022508839154e-01  1.6693429270096749e-01  1.8605157189422625e-01  2.7310953270985028e-01  3.1575824932285007e-01  3.4554291844860829e-01  3.5435900516236618e-01  3.4650725188635145e-01  3.2716570314821375e-01  2.9981496232913257e-01  2.6848737823580415e-01  2.3277081368970184e-01  1.9417092221671020e-01  1.4978052011572537e-01  9.7663610076978727e-02  5.2218496586420110e-02  1.8562490720880922e-02  2.0890362183455385e-02  6.4211794542124029e-02  1.3551307732075429e-01  2.0654121201263886e-01  2.6888925220026449e-01  3.0248256018012831e-01  3.1283951446477942e-01  2.9891913279761317e-01  2.7058772229341882e-01  2.2051536970467864e-01  1.6237353437302651e-01  9.9721789797627150e-02  3.3393992212195113e-02  -1.8899192611796917e-02  -5.5647470434251445e-02  -6.2178670801376339e-02  -4.8470856414505534e-02  -7.2163563143499837e-03  4.2305680433070134e-02  9.6325440171418489e-02  1.4515057045097798e-01  1.7983884930793531e-01  2.0113675346637264e-01  2.0583002491332697e-01  1.9520897178761609e-01  1.7052088707011132e-01  1.3699345513847233e-01  9.5862851480185265e-02  5.3131908745173498e-02  1.1188722535738754e-02  -2.4226451894055780e-02  -4.9301130490699327e-02  -6.1724296785558110e-02  -5.5458378357399266e-02  -3.6667769581094030e-02  -1.0057311403860852e-02  1.7936095703905978e-02  4.3695437437063805e-02  5.9712377611276908e-02  6.5816696451391751e-02  5.9613733385591755e-02  4.2698016640699728e-02  2.1876461176830397e-02  0.0000000000000000e+00  0.0000000000000000e+00  0.0000000000000000e+00  0.0000000000000000e+00  0.0000000000000000e+00  0.0000000000000000e+00  0.0000000000000000e+00  0.0000000000000000e+00  0.0000000000000000e+00  0.0000000000000000e+00  0.0000000000000000e+00  0.0000000000000000e+00  0.0000000000000000e+00  0.0000000000000000e+00  0.0000000000000000e+00  0.0000000000000000e+00  -2.2937063395706222e-02  -5.1259216687996309e-02  -8.0204056332765561e-02  -9.8360613652713619e-02  -1.0062591463406838e-01  -8.7364999701124213e-02  -5.8380991493893988e-02  -2.4280807658579658e-02  1.1354242102854994e-02  4.1548986413251367e-02  6.1662189912025669e-02  6.7126078182974155e-02  6.1964326109945872e-02  4.5290411707533403e-02  1.9712296207401381e-02  -9.9912698702421896e-03  -3.8616290025814549e-02  -5.6215662809801795e-02  -5.9319445070213077e-02  -4.4690105344191225e-02  -1.1893915306429820e-02  3.3015150449374489e-02  8.0948135483480330e-02  1.2903671164118619e-01  1.7052595271636878e-01  2.0456996231907790e-01  2.2750007465240951e-01  2.3743624740210373e-01  2.3608057727594456e-01  2.1846015030091065e-01  1.8848132069554199e-01  1.4521823388377689e-01  9.3038887435426987e-02  3.6101014044844663e-02  -5.0434122682113895e-03  -2.0180552798178198e-02  -1.8085781713531176e-03  4.5535211224999483e-02  1.0389541434478368e-01  1.6345851015726917e-01  2.1568497505888512e-01  2.6216936120423728e-01  3.0300929389289211e-01  3.2885452907453511e-01  3.4015266652821396e-01  3.2782449061490510e-01  2.8603883742774944e-01  2.2222278549957208e-01  1.4661077214326632e-01  7.8953682124819430e-02  4.8690093951376918e-02  5.2655632910831696e-02  9.1211930785680295e-02  1.4343633417396262e-01  1.9578334559021054e-01  2.4528174958150287e-01  2.8567107325465796e-01  3.5701347274087458e-01  3.8283843699277847e-01  4.0519231748780277e-01  4.1151841494956759e-01  4.0177724486820238e-01  3.7601551115694032e-01  3.3658040232401254e-01  2.8556473522664844e-01  2.2709141059480417e-01  1.6900545057693667e-01  1.1821016393136483e-01  8.0271368101209217e-02  5.5601628938883749e-02  4.4465878440228417e-02  4.1162128543757948e-02  4.4482936125629167e-02  4.8350835247170106e-02  5.1751094812329569e-02  5.3611119522797360e-02  5.4660558072095917e-02  5.7501962569451406e-02  6.1750264040078960e-02  7.1562863355218623e-02  8.4791932138655171e-02  1.0325211722277862e-01  1.2660523765165554e-01  1.5347901837752911e-01  1.8278573515937138e-01  2.1295083570165596e-01  2.4213369664526788e-01  2.6906596948001305e-01  2.9360981150122528e-01  3.1469597831405832e-01  3.3246632189110598e-01  3.4758246471157267e-01  3.5981539554802117e-01  3.6983535465116629e-01  3.7774908031667909e-01  3.8377091783170353e-01  3.8807970809137787e-01  3.9078204798224303e-01  3.9251788263052728e-01  3.9497863948957712e-01  4.0059524180226858e-01  4.1051830776305387e-01  4.2550741693719807e-01  4.4654730994345038e-01  4.7374184264610442e-01  5.0705852704023280e-01  5.4593484664525049e-01  5.8968769275929245e-01  6.3621114610648943e-01  6.8394703004703339e-01  7.3003161123893190e-01  7.7148854807415379e-01  8.0678146622187585e-01  8.3279879049850170e-01  8.4867000540520676e-01  8.5335961594246068e-01  8.4784960245926200e-01  8.3311923339603167e-01  8.1232940866117265e-01  7.8667570750830473e-01  7.5909286194062953e-01  7.3171312598586646e-01  7.0682496763137292e-01  6.8529063268558688e-01  6.6815820395599390e-01  6.5559580600202261e-01  6.4760649284867122e-01  6.4361511051773235e-01  6.4247707525108122e-01  6.4326544947758590e-01  2.1868433251171515e-01  2.0373479990738519e-01  1.6072745158642043e-01  6.0427695779210387e-02  -1.2892840983985043e-01  -3.6221851561937057e-01  -5.4201485014010486e-01  -4.6921115545996894e-01  -2.6352573531680262e-01  -2.3159478000510377e-02  1.5467318964234877e-01  2.7513559899237189e-01  3.2445194102408581e-01  3.2806971194179385e-01  3.2555487075626593e-01  3.2379110391602611e-01  -3.4224484112400637e-02  -8.0204957532688290e-02  -3.2514533070343916e-02  -5.1761976122900233e-02  -6.0152624363645706e-02  -1.4952791143992912e-03  1.6905133392704100e-01  -1.2453719383827838e-01  -1.4251308028348172e-01  2.6115898360989448e-01  -4.1618434357641843e-02  1.0484490733226343e-01  -2.0922416469709085e-01  2.4529141904346688e-01  -5.2870234079225323e-02  1.8691733088089552e-01  1.0079798540824557e-01  -7.9227589093197562e-02  2.9706290863888218e-01  -2.2250133967765190e-01  -3.3622082619211340e-02  1.5072239932600093e-01  1.6258680141560047e-01  -9.7861219117891807e-02  -1.7209224488936956e-01  2.1273038153228038e-01  1.9307415472989983e-01  -3.7951988201030285e-03  -2.1498674626467301e-01  -7.2907685255314714e-02  1.7521696801954454e-02  2.3366190308339127e-01  4.2635633899288254e-02  -3.3213194714200464e-02  2.6722504586124223e-02  -6.9571155586586428e-02  1.9980973798225721e-02  -6.0060449617674171e-02  -2.1059133301705720e-02  1.2726111804782055e-02  4.5515030700812371e-02  -6.0736884411732306e-02  -1.3739541405203681e-01  2.4971948101799832e-01  1.7396709232236676e-01  -9.8431064055508569e-02  2.0432563268676066e-01  8.5667066641602799e-02  3.6395449343318309e-01  -1.1632274592668168e-01  -8.5133838653307647e-02  2.2475242095749196e-01  3.9605290735324865e-02  3.5180512577255441e-01  2.7575100493404725e-01  1.8185135877425751e-01  -9.6153779505577214e-02  9.8603802844483474e-02  -1.0499273448064169e-02  3.2178947196293500e-01  -1.3420116893707137e-02  -6.7771748118109869e-03  2.9502971920500742e-01  -9.7494024521435296e-02  1.5487268921580222e-01  8.9445653034195632e-02  -2.2087513690574900e-01  -1.6251950181422900e-01  6.8574040063003203e-02  1.4650625881902629e-01  -3.5619844067183959e-01  1.2670736585087222e-01  -1.2995245372941446e-02  -3.7259281266438189e-02  4.5233100425151676e-02  3.2444850841274797e-01  -1.0273582463568554e-01  4.2218988155040056e-02  2.0833499142357433e-02  1.8866986996820007e-02  3.4853551432705403e-02  -7.7212760662975957e-02  8.3807023945141348e-02  1.6932820084290254e-01  1.1267905117319345e-01  -1.6381358412792896e-01  8.9833867703699152e-02  2.2631407637106350e-03  1.0580042947845715e-01  -1.1108599458033520e-01  -2.1501177193840906e-01  -3.4667393505752298e-01  -1.0627457332041096e-01  3.1242302486884185e-02  5.6774296280473979e-02  1.3121895828211996e-01  -6.0342671756006855e-02  2.2591654526421465e-01  1.7520015882185408e-01  8.7981028035233846e-02  1.1598162595862781e-01  -3.4598402082681744e-02  -1.8265720883721671e-02  2.0236579273221331e-01  6.7097548592585987e-02  -8.2510351800625950e-02  -1.6842366295565137e-01  -1.8234732015663591e-01  -5.4527049620606101e-03  2.7593224366900210e-01  1.1745196462948902e-01  2.3660107448093270e-01  7.8200226029454478e-02  1.3297713082928561e-01  -5.8167041818278704e-02  2.9770385716779049e-02  2.3046955746301517e-01  -1.0826955349846240e-01  1.2516737949340986e-02  -2.5552504430458825e-02  3.5010488483192145e-02  3.7938994669762270e-02  1.1205737505126143e-01  7.6497769255592318e-02  -1.2276037621295809e-01  3.6447068670998078e-01  2.3941974596904700e-01  -7.4231331276227816e-02  -7.1315904668284399e-02  9.5683901449660907e-02  3.2648392469470051e-02  -1.2269444550624402e-01  -3.9477526398923206e-02  7.4097424015519817e-02  -1.9283958714228683e-02  5.5487026178788427e-03  -8.2514303945041334e-02  1.3909034915419063e-01  8.0621970062328338e-02  5.7988859236610566e-03  7.5686439762521041e-02  2.4088860029335235e-01  2.4212266426891663e-01  -1.0378598225979736e-01  9.6017863872124146e-02  -1.0911257034705245e-01  3.2601533115204384e-01  -7.2966012740666109e-02  2.7941067557972948e-01  1.6157073822757564e-01  7.0214315808816680e-02  -2.3524606102281249e-02  2.5356020515609412e-01  9.3282740506008960e-02  1.8095107402371782e-01  6.6075811744907745e-02  -1.7526198838848714e-01  3.5703767050764307e-01  2.1181554033286842e-01  -2.1126130484697841e-02  1.8828646544591976e-01  -3.2033524950849157e-01  1.6157754273610664e-01  3.9750983344058403e-02  1.2626710557666204e-01  -2.4768377819081963e-02  -2.4084902065123093e-01  -1.4063975341126955e-01  1.9476978769026654e-01  -1.1818117283965728e-01  -2.1864361173645999e-01  1.2242206941231791e-01  9.7113487281701869e-02  -1.2126142483977648e-01  -2.1545633009421453e-01  -9.8535860383090673e-02  -3.6751695630574191e-02  3.0858904624506918e-02  -2.1957406646171910e-02  9.0552417031909610e-02  2.6821274922468807e-01  4.0963523979253895e-02  3.0228039631440728e-01  -4.5284986825772020e-02  5.3816813686958398e-02  6.4174535917746758e-02  -1.6977797401146005e-01  2.2053867637843425e-01  -4.5698500150196351e-02  1.0326956837077934e-01  2.6067220929604583e-02  -5.8064755869506560e-02  -8.1750696672184708e-02  2.3267630846651510e-02  -4.0160883641975481e-02  -6.4045406403031760e-02  -1.6307410535479944e-01  3.3367513570104912e-01  -8.1558580113854112e-02  -1.8850579507534101e-03  2.2416007347467473e-01  -6.3580305134224371e-02  4.3938047361715636e-04  2.8661438143748480e-01  1.6426787565330541e-02  -4.0906351156416956e-02  9.7376998224844025e-02  7.5389416529943899e-03  -1.1194398363832685e-01  -1.5945133507050277e-01  -1.5413714292725417e-01  -1.2538265174870003e-01  1.1937644630982038e-02  -5.1646021672508396e-02  3.6013624887420742e-01  -7.8595122904994597e-02  5.2429846454451083e-02  -1.3729665325703961e-02  1.2554304411442194e-01  1.1124086994993325e-01  -2.0693392768604787e-01  3.3625705441931902e-01  1.1434467762897584e-01  7.4291887138214066e-02  -4.9212328714540322e-02  2.3973078660178973e-01  1.9447663347257763e-01  -8.2210168629399342e-03  6.7431259173741688e-03  -2.5691473949469468e-01  5.0344030899642171e-02  2.1958376621173281e-02  -6.8809898902975730e-02  -3.1666209311946275e-01  2.2370306168314261e-01  9.0196235950881054e-02  3.5745883654014193e-01  2.8529978225788410e-02  -1.6699960795221805e-01  3.3027403009960321e-01  -1.2598528842305600e-02  9.1592996524960373e-03  -1.8115479832047740e-01  2.3284483161917610e-01  -1.5522992638932987e-03  -4.0714115148401370e-02  -1.1924245704202442e-01  1.6875908735162140e-01  2.9384598184070210e-01  2.9143998013548583e-01  -6.3664607411149404e-02  1.8701481037104457e-02  4.2022271273955233e-02  1.6650709241254594e-01  6.0750247683146200e-02  2.6256014909578040e-01  1.7637787660353266e-01  -6.9349654251315521e-02  -1.2119819385230621e-01  1.2472139300600898e-01  2.0941952470749978e-01  1.9178569286355321e-01  7.0561373336161415e-02  3.5765491036155533e-01  -9.6902548608488584e-02  8.9976051010841232e-02  -1.7113642514829000e-01  3.6373854849561210e-02  6.6411843486821349e-03  2.0702284149091033e-01  -2.7414592355429201e-01  1.8337084743008403e-01  5.1683807240042755e-02  5.6770109870869986e-02  1.3277019332352685e-01  7.1250599561831066e-02  1.1465616211560634e-01  -1.9230147443633039e-01  -3.0352311811826838e-02  9.6206573370018117e-02  1.8139559263180663e-01  2.0485938087029389e-02  -5.5128666591291203e-02  3.8667262343587576e-02  2.7651153321895711e-01  -1.2042731131402649e-01  -4.0222553579268724e-02  4.8891289817625812e-02  2.6602921602661700e-01  2.7611332230777280e-01  -4.4085149247990361e-02  2.9915732936359050e-02  -1.3889800747294292e-01  1.0630913057412511e-01  7.7166361716728638e-02  1.0152842144582322e-01  -1.0048061679622622e-01  3.9545064633019260e-02  4.9001121371225094e-02  3.3330079016285075e-01  -9.7637430657947055e-02  1.0839965802877437e-01  4.4796164066591503e-02  1.6325434155419938e-01  -5.5171509776179246e-02  6.5097663656554922e-02  1.4226341735604248e-01  1.9975646223667842e-01  -8.6276065508860245e-02  -1.0386718800329623e-02  -3.6918645694232435e-02  2.7386722085535647e-01  -4.9322401386698328e-02  -4.5781793969541511e-02  -2.4480399745448755e-02  1.8344490523390514e-01  -1.1286756927030589e-01  -3.6625822120944279e-01  1.1216094958500282e-02  6.2337744382557916e-02  3.2184206714272795e-01  6.9605641654538669e-02  2.1013601060709775e-01  1.6942524275312160e-01  -1.4734519782519665e-02  -8.7204276596465277e-02  1.1783832104733517e-01  7.9850206172423985e-02  -1.8016544077331352e-02  2.6092963682431897e-01  -1.5530194714156878e-01  -1.2813455379271743e-01  6.6452914392539503e-02  -2.3212635425621775e-01  -1.8842590178519400e-01  8.4797379742359527e-02  1.6964807079099309e-02  -1.8725091486023521e-01  -9.2685560380129442e-02  -8.2823759131712485e-02  2.1390861110905374e-01  -2.5323835937741607e-01  -2.2218164615152504e-02  5.7839484531742251e-02  -3.5175537902983806e-02  -2.0346068033769688e-01  7.6667269034857112e-03  -1.0892457599968241e-02  1.8049915002839731e-01  -1.2377153773861460e-01  3.9573248150519859e-02  1.7807622115149882e-01  3.7171984486344040e-02  -2.3112752116061869e-01  1.0519884736961911e-01  7.4527280253771783e-02  1.3313677914218114e-01  2.4253892501639476e-01  2.1293702536726830e-01  -2.2002816203704204e-02  3.0415348094696470e-01  -7.5508600904811041e-02  1.1223694140106182e-01  1.2304205102286567e-01  -5.0238799603069054e-02  -8.4656066007157485e-02  1.0588089159046669e-01  2.5587611156145390e-01  1.3261304623117851e-01  -5.7207181628079654e-02  7.0854709027782195e-02  -8.2749488014402267e-02  -8.9677536097018447e-03  -1.2679677892984920e-01  7.1485505392576393e-02  1.9872395854683689e-01  -4.8988548990343784e-03  -9.4372396782885490e-02  -3.9717002296875586e-01  5.3786535251702133e-04  5.2097660080828903e-02  5.1408336196896602e-02  -4.6616941174571928e-02  2.3273041075747705e-02  1.0750801603188335e-02  3.1414225135385693e-01  -7.5490905476043119e-02  3.5002285243108701e-02  2.2956324874233053e-01  1.4327384283945227e-01  9.0513092604489781e-02  2.4461850884138897e-01  -3.2928203049863027e-02  -1.0793208416750319e-01  -1.5609122154181207e-01  4.8776820407920515e-02  1.3390562859719823e-01  1.7045417871225749e-01  -8.6795853203443338e-02  1.9060202002184681e-01  -1.4895305651639398e-02  -6.4120700258215826e-02  5.1643412897827999e-02  2.2390701148255013e-01  -2.0331005656443581e-03  5.1833313345399874e-02  1.3732830640036078e-01  -1.6691908267588515e-01  1.0226300726669257e-01  3.7439571500093921e-01  2.5684291172484330e-02  1.3406369768403945e-01  -1.8806557716188427e-01  -1.3121094103219544e-01  1.2732648008404995e-01  1.0798870045652534e-01  3.4151183419478365e-01  2.5484984267503585e-01  -3.4173062578453720e-03  -2.7389295630313365e-02  9.2953069055275395e-02  -1.8928714316602571e-01  3.1476956166180409