<?xml version="1.0"?>
<VTKFile type="UnstructuredGrid"  version="0.1"  >
<UnstructuredGrid>
<Piece  NumberOfPoints="4820" NumberOfCells="9262">
<Points>
<DataArray  type="Float64"  NumberOfComponents="3"  format="ascii">0.004357787137382907 0.04980973490458728 0  3.061616997868383e-18 0.05 0  -0.004357787137382901 0.04980973490458728 0  -0.004357787137382912 -0.04980973490458728 0  -9.184850993605149e-18 -0.05 0  0.004357787137382894 -0.04980973490458728 0  -0.2 -0.2 0  0.55 -0.2 0  2 -0.2 0  2 0.21 0  0.55 0.21 0  -0.2 0.21 0  0.002180969358710071 0.04995241107951016 0  -0.002180969376377175 0.04995241107873878 0  -0.00218096936205605 -0.04995241107936408 0  0.002180969376762267 -0.04995241107872198 0  -0.00681459716460041 0.04953343583362881 0  -0.009254746165878699 0.04913603233275104 0  -0.01167226821331763 0.04861849601495686 0  -0.01406125270101674 0.04798209220613614 0  -0.01641585879600313 0.04722837685110179 0  -0.01873032971283131 0.04635919271135586 0  -0.02099900679895535 0.04537666485604058 0  -0.02321634335656028 0.04428319547131056 0  -0.02537691821523419 0.04308145798249308 0  -0.02747544897576464 0.04177439052314415 0  -0.0295068049360126 0.04036518874560236 0  -0.03146601963036187 0.03885729800979068 0  -0.03334830296690066 0.03725440496408185 0  -0.03514905295182857 0.03556042852089316 0  -0.03686386691867947 0.03377951029547187 0  -0.03848855232085789 0.03191600445301051 0  -0.04001913696023074 0.02997446708380811 0  -0.04145187870654155 0.02795964505672717 0  -0.04278327464009846 0.02587646442367869 0  -0.04401006963121561 0.02373001835346012 0  -0.04512926428658137 0.02152555469556806 0  -0.04613812228218922 0.0192684631528764 0  -0.04703417705848439 0.01696426209509693 0  -0.04781523785065199 0.0146185850644164 0  -0.04847939503850856 0.01223716702101564 0  -0.04902502482533359 0.009825830289366174 0  -0.04945079319725205 0.00739047036139188 0  -0.04975565919278197 0.004937041451287537 0  -0.04993887744399172 0.002471541954727039 0  -0.05000000000000002 -2.179027782864273e-10 0  -0.04993887742290181 -0.002471542380860383 0  -0.04975565915220143 -0.004937041860259632 0  -0.04945079313853181 -0.007390470754298181 0  -0.04902502474990915 -0.009825830665689136 0  -0.04847939494791073 -0.01223716737993267 0  -0.04781523774597484 -0.01461858540679994 0  -0.04703417694176702 -0.01696426241870103 0  -0.04613812215449838 -0.01926846345863071 0  -0.04512926414810409 -0.02152555498589172 0  -0.04401006948618459 -0.02373001862243695 0  -0.04278327448542859 -0.02587646467940464 0  -0.04145187854660255 -0.0279596452938465 0  -0.04001913680095092 -0.02997446729646378 0  -0.03848855215910903 -0.03191600464806871 0  -0.03686386675419343 -0.0337795104749769 0  -0.03514905278746659 -0.03556042868335375 0  -0.0333483028093871 -0.0372544051050802 0  -0.03146601947545011 -0.03885729813523576 0  -0.02950680478964417 -0.04036518885259716 0  -0.02747544883924331 -0.04177439061293563 0  -0.0253769180845661 -0.04308145805946247 0  -0.02321634324304243 -0.04428319553082456 0  -0.02099900669895044 -0.04537666490231995 0  -0.01873032963061061 -0.04635919274457518 0  -0.01641585872377311 -0.04722837687620784 0  -0.01406125264610136 -0.04798209222222922 0  -0.01167226817214395 -0.04861849602484179 0  -0.009254746140787012 -0.04913603233747704 0  -0.006814597153124481 -0.04953343583520761 0  0.006814597163087254 -0.04953343583383697 0  0.009254746162416328 -0.04913603233340317 0  0.01167226820749043 -0.04861849601635584 0  0.01406125269526824 -0.04798209220782076 0  0.01641585878869484 -0.04722837685364205 0  0.01873032970478165 -0.04635919271460813 0  0.02099900678940205 -0.04537666486046157 0  0.02321634334324823 -0.04428319547828967 0  0.02537691819928517 -0.04308145799188777 0  0.02747544895679411 -0.04177439053562125 0  0.02950680491571239 -0.04036518876044175 0  0.03146601960788315 -0.03885729802799359 0  0.03334830294823126 -0.03725440498079377 0  0.03514905293079007 -0.03556042854168828 0  0.03686386690162479 -0.03377951031408381 0  0.03848855230703181 -0.03191600446968382 0  0.04001913694627814 -0.02997446710243633 0  0.04145187869083342 -0.02795964508001545 0  0.04278327462632659 -0.02587646444644864 0  0.04401006962056583 -0.02373001837321138 0  0.04512926427712953 -0.02152555471538427 0  0.04613812227399118 -0.01926846317250652 0  0.04703417705106056 -0.01696426211567986 0  0.04781523784312168 -0.01461858508904696 0  0.04847939503319636 -0.01223716704206073 0  0.04902502482144694 -0.009825830308758294 0  0.04945079319422288 -0.007390470381660498 0  0.0497556591909245 -0.004937041470007301 0  0.04993887744294273 -0.002471541975922472 0  0.05000000000000002 1.960026680888904e-10 0  0.04993887742406512 0.002471542357355427 0  0.0497556591543939 0.004937041838163785 0  0.04945079314184119 0.007390470732154637 0  0.04902502475403982 0.009825830645079567 0  0.04847939495309415 0.01223716735939779 0  0.04781523775084436 0.01461858539087247 0  0.04703417694693356 0.01696426240437658 0  0.04613812215952091 0.01926846344660432 0  0.04512926415455419 0.02152555497236883 0  0.04401006949386337 0.02373001860819578 0  0.04278327450092428 0.0258764646537846 0  0.04145187856220046 0.02795964527072164 0  0.04001913681616228 0.02997446727615497 0  0.03848855217730672 0.03191600462612355 0  0.03686386677147228 0.03377951045612033 0  0.03514905280168957 0.03556042866929533 0  0.0333483028196165 0.03725440509592335 0  0.03146601948352148 0.03885729812869969 0  0.02950680480117144 0.04036518884417076 0  0.02747544884918156 0.04177439060639914 0  0.02537691809390653 0.04308145805396053 0  0.02321634324922249 0.04428319552758454 0  0.02099900670813883 0.04537666489806784 0  0.01873032963827596 0.04635919274147818 0  0.01641585873206496 0.04722837687332573 0  0.01406125264532184 0.04798209222245766 0  0.01167226817007835 0.04861849602533769 0  0.009254746139683721 0.04913603233768484 0  0.006814597151967234 0.04953343583536681 0  -0.1875196675247935 -0.2 0  -0.1748316574073939 -0.2 0  -0.1619325191073485 -0.2 0  -0.1488187266915765 -0.2 0  -0.1354867190390691 -0.2 0  -0.1219328601465505 -0.2 0  -0.1081534589822707 -0.2 0  -0.09414476550972861 -0.2 0  -0.07990295838040007 -0.2 0  -0.06542416251428446 -0.2 0  -0.05070442829752772 -0.2 0  -0.03573975778997357 -0.2 0  -0.02052606446908414 -0.2 0  -0.005059208186730002 -0.2 0  0.0106650220181323 -0.2 0  0.02665090828184707 -0.2 0  0.04290281009001662 -0.2 0  0.05942514756265038 -0.2 0  0.07622242703544463 -0.2 0  0.09329921759985482 -0.2 0  0.110660176225582 -0.2 0  0.1283100240439488 -0.2 0  0.146253576648871 -0.2 0  0.1644957213272042 -0.2 0  0.1830414174264912 -0.2 0  0.2018957247245375 -0.2 0  0.2210637776854531 -0.2 0  0.2405507899571802 -0.2 0  0.2603620802338072 -0.2 0  0.2805030369240936 -0.2 0  0.3009791461642926 -0.2 0  0.3217959913512258 -0.2 0  0.3429592352388189 -0.2 0  0.3644746444814039 -0.2 0  0.3863480802046066 -0.2 0  0.4085854997083186 -0.2 0  0.4311929582382759 -0.2 0  0.4541766169094176 -0.2 0  0.4775427325114808 -0.2 0  0.5012976686781503 -0.2 0  0.5254479007761028 -0.2 0  0.5750000000714078 -0.2 0  0.6000000001173931 -0.2 0  0.6250000002059986 -0.2 0  0.6500000002385247 -0.2 0  0.675000000336103 -0.2 0  0.7000000003686291 -0.2 0  0.7250000004542437 -0.2 0  0.7500000005062106 -0.2 0  0.7750000005716368 -0.2 0  0.8000000006490264 -0.2 0  0.8250000006890297 -0.2 0  0.8500000007910944 -0.2 0  0.8750000008565204 -0.2 0  0.9000000009518555 -0.2 0  0.9250000010408349 -0.2 0  0.9500000011343006 -0.2 0  0.9750000012251494 -0.2 0  1.000000001296183 -0.2 0  1.0250000013646 -0.2 0  1.050000001466665 -0.2 0  1.075000001557888 -0.2 0  1.100000001673038 -0.2 0  1.125000001762017 -0.2 0  1.150000001851744 -0.2 0  1.175000001947827 -0.2 0  1.200000002046153 -0.2 0  1.225000002155695 -0.2 0  1.25000000221813 -0.2 0  1.275000002244301 -0.2 0  1.300000002154947 -0.2 0  1.325000002108962 -0.2 0  1.350000002019609 -0.2 0  1.375000001973624 -0.2 0  1.400000001884271 -0.2 0  1.42500000182707 -0.2 0  1.450000001748932 -0.2 0  1.475000001659579 -0.2 0  1.500000001570226 -0.2 0  1.525000001480872 -0.2 0  1.550000001391519 -0.2 0  1.575000001345534 -0.2 0  1.60000000125618 -0.2 0  1.625000001210195 -0.2 0  1.650000001120842 -0.2 0  1.675000001066632 -0.2 0  1.700000000985504 -0.2 0  1.725000000905871 -0.2 0  1.750000000850165 -0.2 0  1.775000000760812 -0.2 0  1.800000000714827 -0.2 0  1.825000000625473 -0.2 0  1.85000000053612 -0.2 0  1.875000000446767 -0.2 0  1.900000000357413 -0.2 0  1.92500000026806 -0.2 0  1.950000000178707 -0.2 0  1.975000000089353 -0.2 0  2 -0.1758823529236379 0  2 -0.1517647057870068 0  2 -0.1276470586430415 0  2 -0.103529411528254 0  2 -0.07941176439513059 0  2 -0.05529411724717925 0  2 -0.03117647008918309 0  2 -0.007058822960843009 0  2 0.01705882406928105 0  2 0.0411764710640091 0  2 0.06529411804247409 0  2 0.08941176503720205 0  2 0.11352941203193 0  2 0.137647059026658 0  2 0.1617647060111818 0  2 0.185882353005272 0  1.974999999927471 0.21 0  1.949999999833257 0.21 0  1.924999999782412 0.21 0  1.899999999688198 0.21 0  1.874999999637353 0.21 0  1.849999999543139 0.21 0  1.824999999448926 0.21 0  1.799999999354712 0.21 0  1.774999999260499 0.21 0  1.749999999166286 0.21 0  1.724999999082914 0.21 0  1.699999998977859 0.21 0  1.674999998902712 0.21 0  1.649999998789432 0.21 0  1.624999998688863 0.21 0  1.599999998581938 0.21 0  1.574999998495201 0.21 0  1.549999998413699 0.21 0  1.524999998318364 0.21 0  1.499999998273501 0.21 0  1.474999998238357 0.21 0  1.449999998189755 0.21 0  1.424999998038714 0.21 0  1.399999997975905 0.21 0  1.37499999792992 0.21 0  1.349999997902628 0.21 0  1.324999997821126 0.21 0  1.299999997699994 0.21 0  1.274999997636438 0.21 0  1.249999997681301 0.21 0  1.224999997765794 0.21 0  1.199999997857764 0.21 0  1.174999997916835 0.21 0  1.149999998014039 0.21 0  1.124999998067875 0.21 0  1.09999999816508 0.21 0  1.074999998218916 0.21 0  1.049999998316121 0.21 0  1.02499999838865 0.21 0  0.999999998467161 0.21 0  0.9749999985209969 0.21 0 
[...]
<PointData  Scalars="pressure"> 
<DataArray  type="Float64"  Name="pressure"  format="ascii">5.9895313719436716e-01  -4.2999261438918690e-01  -3.8630113683686151e-01  -1.7971884999056331e+00  -1.7478337360991658e+00  -2.5004774750043288e+00  3.1001097612023798e-01  5.7276603972751736e-02  0.0000000000000000e+00  0.0000000000000000e+00  2.8531828516792002e-01  6.8208207555785938e-01  1.0096232150511402e-02  -7.4634889225933498e-01  -1.5051179554902621e+00  -2.1224373200173416e+00  -5.3957979312057613e-01  -5.8865446318282100e-01  -6.0806627533253821e-01  -6.1098767321130798e-01  -5.9310789486371396e-01  -5.5735415451841408e-01  -5.0539444581111392e-01  -4.3874719588340666e-01  -3.5370087203629608e-01  -2.5153462710133700e-01  -1.3529921021547855e-01  -1.1066092306241768e-02  1.2531151987749983e-01  2.7674743870634738e-01  4.2936228149156097e-01  5.9197552732508063e-01  7.5386273410818438e-01  9.1321324195605103e-01  1.0765804654625515e+00  1.2266319791158484e+00  1.3758579652649081e+00  1.5121840642187359e+00  1.6336103133164377e+00  1.7436249425111141e+00  1.8341966685207955e+00  1.9063633128253028e+00  1.9595546100450820e+00  1.9932034354674935e+00  2.0009668818205646e+00  1.9887001142514782e+00  1.9543787448385312e+00  1.8969136839933438e+00  1.8192851085121224e+00  1.7200091361455150e+00  1.6034906048189341e+00  1.4711779282808159e+00  1.3202101340678354e+00  1.1600087590046964e+00  9.8595033249928010e-01  8.0307030969126669e-01  6.1608895248216111e-01  4.2414199347521897e-01  2.3518599068339233e-01  4.6899529778129889e-02  -1.4272947723810395e-01  -3.1300846892787820e-01  -4.8975410806639669e-01  -6.4390416384397142e-01  -7.9271061508850704e-01  -9.2258812567091775e-01  -1.0450879872487302e+00  -1.1472323698592881e+00  -1.2376000876741824e+00  -1.3141384496062491e+00  -1.3735050242810747e+00  -1.4255772845785371e+00  -1.4659828306515248e+00  -1.5069359549890091e+00  -1.5628125423631889e+00  -2.0499840299083303e+00  -1.8807711715516364e+00  -1.7562943980748089e+00  -1.6531432166256901e+00  -1.5641378321754003e+00  -1.4878896646602027e+00  -1.4194974872177379e+00  -1.3582289719255873e+00  -1.3023198365245987e+00  -1.2509782116767107e+00  -1.2049507743910723e+00  -1.1625997527523992e+00  -1.1256704864501079e+00  -1.0931733772398540e+00  -1.0635261120792090e+00  -1.0370453006373250e+00  -1.0120178370939170e+00  -9.8775669358054785e-01  -9.6277720349039786e-01  -9.3641234656272121e-01  -9.0847295565445485e-01  -8.7742999257454857e-01  -8.4254162586107439e-01  -8.0566566134037920e-01  -7.6428957431427536e-01  -7.2051255539917947e-01  -6.7366133065842981e-01  -6.2501372017577261e-01  -5.7522311505953416e-01  -5.2532613983559606e-01  -4.7589732335591800e-01  -4.2702709569471109e-01  -3.8035537842831724e-01  -3.3515458400818543e-01  -2.9232110910446918e-01  -2.5197224301514787e-01  -2.1370355725811485e-01  -1.7731593324541603e-01  -1.4327966016331320e-01  -1.1156307537989038e-01  -8.1727841841825744e-02  -5.4965065818332763e-02  -3.0850280375260497e-02  -9.2865468117112465e-03  9.6923325069859304e-03  2.7528200319492609e-02  4.2607505096007366e-02  5.7663737595397550e-02  7.2322212878005485e-02  8.6950830411661614e-02  1.0113268593002582e-01  1.1543100246396486e-01  1.2912111532384773e-01  1.4394701919608630e-01  1.6024521132034872e-01  1.8109005784086693e-01  2.1198148203661651e-01  2.5890024349295021e-01  3.2673568055697289e-01  3.0886637985464055e-01  3.0643588203420097e-01  3.0174331128708637e-01  2.9498568264534381e-01  2.8515862953371568e-01  2.7196734911737191e-01  2.5446539535249940e-01  2.3245876672575649e-01  2.0492560981941052e-01  1.7214479187561135e-01  1.3407549869192509e-01  9.0492095373003040e-02  4.4975391419022827e-02  -3.1019467414053516e-03  -4.8980293990742954e-02  -8.9518206223335339e-02  -1.2537829355049410e-01  -1.4932913961627439e-01  -1.6443532132524158e-01  -1.6859703215268271e-01  -1.6091892053029569e-01  -1.4334457648894092e-01  -1.1657376945543603e-01  -7.8511743989449337e-02  -3.0925333228558397e-02  2.6065153426877014e-02  8.8680036628188769e-02  1.5222388644569135e-01  2.1736801417530799e-01  2.7363462073532580e-01  3.1774904829273898e-01  3.4601568200115879e-01  3.5579430488028402e-01  3.4358461698821713e-01  3.0667123918266498e-01  2.5688303986961258e-01  1.9261149342630035e-01  1.3454220869740557e-01  9.3667239461819526e-02  6.8735675188602616e-02  5.8448698108194766e-02  6.0235713726421392e-02  7.4573376455245977e-02  1.0293339949825696e-01  1.4289503027011385e-01  1.8835113830832431e-01  2.2675400588735461e-01  2.5095204716346081e-01  2.6106039886436461e-01  2.5508609161871831e-01  2.3993484723658795e-01  2.1166134532127773e-01  1.6864357672023536e-01  1.1540641921092376e-01  4.7107095421913617e-02  -1.5128246291990433e-02  -6.0735859639823593e-02  -7.1716956847710955e-02  -4.4687422963299313e-02  1.3096800978239757e-02  7.8524317971097338e-02  1.3902878264029941e-01  1.8610502783690155e-01  2.1394663291896338e-01  2.2234706271895252e-01  2.1329306500566739e-01  1.8697362045360938e-01  1.4260401185613986e-01  9.0849430311804855e-02  3.3237086517105392e-02  -1.3675044250940927e-02  -4.6689434983380941e-02  -4.4716385722687664e-02  -2.1406197515016732e-02  2.7880408746347288e-02  8.5784221433039445e-02  1.3837812902905275e-01  1.8217678764226036e-01  2.0764317032576332e-01  2.1522506566892019e-01  2.0595938784658216e-01  1.8188922344378763e-01  1.4458106008239643e-01  9.9895199254126654e-02  4.9039488928138836e-02  6.0005264736341115e-04  -3.9151962424266759e-02  -6.4346401388124017e-02  -6.5940305140491484e-02  -5.1401689443712005e-02  -2.5747158221732062e-02  3.1033780728997487e-03  3.0489854120742451e-02  4.8383906508000694e-02  5.6677724124715771e-02  5.3239487189625255e-02  3.9929941339634567e-02  2.1340607334687945e-02  0.0000000000000000e+00  0.0000000000000000e+00  0.0000000000000000e+00  0.0000000000000000e+00  0.0000000000000000e+00  0.0000000000000000e+00  0.0000000000000000e+00  0.0000000000000000e+00  0.0000000000000000e+00  0.0000000000000000e+00  0.0000000000000000e+00  0.0000000000000000e+00  0.0000000000000000e+00  0.0000000000000000e+00  0.0000000000000000e+00  0.0000000000000000e+00  -1.7625496470174386e-02  -3.4570028683987938e-02  -4.7359871667499762e-02  -5.0368897588844087e-02  -4.1331633167236988e-02  -2.1812213927122130e-02  8.7781533031834908e-03  4.2306684774138223e-02  7.6341658048019942e-02  1.0472890449904781e-01  1.2201608301216728e-01  1.2165275197433489e-01  1.0730230577734859e-01  7.8800700136569507e-02  4.0507385180359214e-02  3.3979841097636645e-03  -2.6236675974549994e-02  -3.3304642579077101e-02  -1.8489696316820122e-02  1.3308766206363842e-02  5.7076670281456708e-02  1.0389274695003224e-01  1.4333625987901244e-01  1.7520216489931473e-01  1.9466733902205341e-01  2.0165694163218986e-01  1.9481106623624783e-01  1.6966285727555139e-01  1.3379047141986228e-01  8.1910395953290027e-02  2.4349419370564649e-02  -2.3472719533019364e-02  -5.2882218948416576e-02  -5.4704242302493815e-02  -2.6120134950899435e-02  3.3102392897614907e-02  1.0228750557187136e-01  1.7082002720800243e-01  2.2789718395689512e-01  2.6454872864945500e-01  2.7800717954922949e-01  2.6749065121229948e-01  2.3087539720046119e-01  1.7415756329646892e-01  9.9417458464808983e-02  3.3139809739344696e-02  -1.5374861120431387e-02  -3.2367840873775755e-02  -1.8897782648888976e-02  1.1547282884928407e-02  5.0501733042057927e-02  9.1711972776683984e-02  1.3058935190211818e-01  1.6776361674497262e-01  2.0149753355391639e-01  2.3465653070048414e-01  2.6347684208256322e-01  2.9839978968121222e-01  2.9514768944998587e-01  2.7690147498048978e-01  2.4739956160519250e-01  2.0547821936565117e-01  1.5938278599171873e-01  1.1510095133402061e-01  8.1934601672305180e-02  6.1071325266581933e-02  5.7068262520078947e-02  7.2256593560916182e-02  9.9114192100049361e-02  1.3511131661287357e-01  1.7336031237171723e-01  2.1046448708732610e-01  2.4355576510187910e-01  2.7382506367610487e-01  3.0309168685017318e-01  3.3001044073894698e-01  3.5740086469627019e-01  3.8478263479903785e-01  4.1314558596785045e-01  4.4362224169198577e-01  4.7424006966073456e-01  5.0541165847576208e-01  5.3630486768659225e-01  5.6590386182724273e-01  5.9306092645792130e-01  6.1689192954441774e-01  6.3685761857016254e-01  6.5245311340140510e-01  6.6452107231620972e-01  6.7280273772839094e-01  6.7807652941884589e-01  6.8136327895904569e-01  6.8282153699946324e-01  6.8330800239803402e-01  6.8313124157657357e-01  6.8265234688395338e-01  6.8210754583786015e-01  6.8179553705180063e-01  6.8153931647206212e-01  6.8103536878486015e-01  6.8184359779957104e-01  6.8491133823080241e-01  6.9104980756239620e-01  7.0084566477303967e-01  7.1440013688537152e-01  7.3150143632762477e-01  7.5166202869677567e-01  7.7387902639286976e-01  7.9618221025398495e-01  8.1716908178065062e-01  8.3409340946367172e-01  8.4432704810638903e-01  8.4690035048877310e-01  8.3896403166429023e-01  8.2033876143953355e-01  7.9061465199149839e-01  7.5126761132440045e-01  7.0390613674862801e-01  6.5214787133190000e-01  5.9768380631649942e-01  5.4369771997193594e-01  4.9268659977711038e-01  4.4674803376710714e-01  4.0702904022505237e-01  3.7447497545373587e-01  3.4932719413892804e-01  3.3106581508941263e-01  3.1966404615960958e-01  3.1282698744225140e-01  3.1037332742244383e-01  5.5352133959919031e-02  4.7912843909952554e-02  3.5983143398024754e-02  2.2792001052833393e-02  4.5246221891065601e-03  -1.9999920441437117e-02  -3.0076151349908032e-02  2.4652415380363354e-04  6.2511139878854344e-02  1.4181038552966280e-01  2.1517639120567267e-01  2.6539819235359030e-01  2.9917079508853944e-01  3.0770580652202600e-01  2.9901415507522283e-01  2.8897995782725489e-01  2.2172821799966592e-02  -1.0630881770734531e-01  -9.8119450815938855e-02  -1.2236936181999837e-01  -1.3318593079741678e-01  -6.1256017985270098e-02  1.1495749096142567e-01  -1.3130293966425037e-02  -1.6799800968846126e-01  -1.0652024421831380e-01  1.1245843986166040e-01  1.3476771943943031e-01  -6.1696258897499271e-03  7.9153899983181140e-03  7.2291678342024407e-02  3.4049222080691756e-02  8.5048644767062559e-02  9.8487579494927743e-02  1.0609198892623037e-01  -1.1448157770794151e-01  -1.9398513483419030e-01  2.0604261880036306e-01  2.0849107153390864e-01  -1.5929117468963827e-01  -3.2789133969801099e-01  2.9095455720824476e-01  2.5971762678855542e-01  -2.3129570761710130e-01  -7.0816834478353657e-02  -1.0614325411237747e-01  7.3757685242598847e-02  2.7692692932044677e-01  -2.2337497861543806e-01  -2.9621253211136310e-02  -3.2225506964652727e-02  -6.9866882545837949e-02  -6.3211250512290994e-03  -9.1415614369387166e-02  -2.3470631924069448e-02  6.3940816150386423e-02  6.4619654300151250e-02  -5.9238948701553426e-02  -9.4050353419493152e-02  2.0166049804662542e-01  9.6414819585380160e-02  -3.4960784697665268e-02  2.0858974934730234e-01  7.5430182041050592e-02  5.5835958292197140e-02  -7.0833118035827883e-02  3.5764948191611169e-02  2.3534821332557021e-01  1.2813720201081230e-01  1.3391913155776183e-01  -5.6904253361267053e-02  -2.1594059177326565e-02  3.9147773755817510e-03  2.5853253890599115e-01  1.5158427292631255e-01  1.9925803130488459e-01  2.1145367466884363e-02  -8.9762204452937783e-02  -1.2120945042383395e-01  -1.0837541219879349e-01  2.2722177424924950e-01  1.5174885321090456e-01  -2.7902857259326624e-01  -2.2969387816089523e-01  -3.3824740032177392e-02  1.4036551806709305e-01  -1.5698995011631484e-01  1.3287319627377339e-01  1.1596466644761738e-01  7.8044562966677639e-02  3.0323832257872236e-02  2.5573266458775601e-01  -2.8340349784143029e-02  4.2890740467405285e-02  -2.7461421162542560e-01  -4.9359859636810659e-03  -1.0040776489665039e-01  -1.7413381290543983e-01  7.1757310232131721e-02  -2.8733964712098059e-01  1.2603476997945789e-01  -1.0222372867954529e-01  9.6209031511927112e-02  -1.1023842072339687e-02  1.4961717432038146e-01  -8.7845314959384149e-02  -2.7134002657527606e-01  -9.8981430820461076e-03  -5.0370538952135196e-02  -9.8786829488831329e-02  1.0316706105760669e-01  1.5563693109871937e-01  -1.0425867187726104e-01  6.9972299146325204e-02  2.0855543031272936e-01  -1.7422513501622172e-01  1.7190055529547771e-01  -3.8464752681821909e-02  -9.0567616899449352e-02  2.1572533581519113e-01  1.9015010691294271e-01  2.4577532943984706e-02  -1.0721464378958254e-01  -2.5699424083943234e-01  -1.1518852236222686e-01  2.8516799237341472e-01  1.2664214166609786e-01  2.4400068519248955e-01  -9.8048668961119551e-02  -4.6961352441898752e-02  -7.6871813201139422e-02  9.3966379559801139e-02  2.6450606198159177e-01  -1.2426136154269586e-02  -7.1475826689455426e-03  -2.7117521241198200e-01  5.7863240315737335e-02  1.3341802412189277e-01  1.5318293057596016e-01  6.4904840992285565e-02  -6.0610496741601093e-02  1.5841369718329359e-01  1.1417095415376934e-01  4.7285707268002172e-02  -3.4673156274065461e-02  -1.0137360789192008e-01  8.3518411042430261e-03  -6.0570883911297835e-02  -1.4926155103546043e-02  1.2319761662916386e-01  -2.5984528843209898e-02  -1.3188632452893509e-03  -2.6059491069014129e-01  2.1147669540550951e-01  -1.8991209146604907e-01  1.5248214166589505e-01  6.5697999156520526e-02  -6.8096362345380634e-02  2.4368808859782023e-01  -6.5195373656275701e-02  1.4536927937527436e-01  -2.6713346323846304e-01  1.0510534347312579e-01  -5.4747350563075864e-02  2.6384584488407042e-01  -1.9500117985465015e-01  5.7555401240979083e-02  1.6923617364375654e-01  2.1341437924851092e-01  9.1823752441060422e-03  2.1929812207351468e-01  1.5412556353252030e-01  -1.1630926866368356e-01  3.6755318849982850e-02  1.8845202647206064e-01  5.8824872743479396e-02  -1.6062981782476796e-01  -3.9372866146714300e-02  -9.7306300679251695e-02  1.7539226985410598e-02  1.7966641411598311e-01  -7.1132874480832525e-02  5.7784956590026353e-02  -5.4384763461242207e-02  2.9059335319160462e-01  -1.7075936914417755e-01  -1.1747756495804129e-01  2.1087285556246943e-01  3.0760648668336450e-02  -1.7864558546739978e-01  -3.4336863442476873e-01  -1.0492026916219767e-01  -5.6313417193550278e-02  2.5242448199067303e-03  -1.1641971048339529e-01  -4.2069001511723332e-02  2.5165149472865672e-01  3.8676478683077699e-02  5.4990261281232126e-02  -3.4202166298887962e-02  1.1572404311130681e-01  6.7940952490940690e-02  -2.4027841877464118e-01  1.6235614757712477e-01  3.1076588258938196e-02  -5.3574954444535347e-02  2.6945930850288909e-03  1.2072134745483002e-02  -6.6638282192216944e-02  9.0211831509073942e-02  -3.7308796063599610e-02  -5.1565209875295337e-02  -1.6557150767655177e-01  6.0296126238666987e-02  -6.8108616346501394e-02  -1.5514299216185795e-01  1.8411844491155507e-01  4.0976651839398533e-02  -1.6301291537676461e-02  2.6799827019226408e-01  2.6758326121138321e-02  2.6801576899221177e-02  1.4887613264855085e-01  2.9827738387284228e-02  -1.1797481760923183e-01  1.8027829532249372e-02  -2.2083274182833820e-01  -1.9757180401070210e-01  1.4755010297479704e-01  1.2403967823212027e-01  -8.4715274687144362e-02  -1.1903949051872102e-01  9.7716055896038961e-02  -6.0811200681745177e-02  1.7666372281814988e-01  9.9051646424599502e-02  -1.1271261815911006e-01  -4.1403514952998946e-02  2.7867991242846345e-02  8.4115012220695812e-02  -1.3517238605095771e-02  1.1437250049706453e-01  2.2825019597729940e-01  -9.6103425951482198e-03  4.0978547171955156e-02  -1.5671282104313233e-01  1.0090932881075801e-01  4.0687819234024078e-02  -6.3796926877350668e-02  -6.9269541437899318e-02  2.2104446667113387e-01  7.7478418255269965e-02  1.8171193117834647e-01  1.2778371164354591e-01  -8.0480979390851817e-02  1.9719349076313589e-01  1.0896341945792570e-02  2.4349998220671718e-02  -1.1915172527183443e-01  2.0189388406951794e-01  -6.6829348563440579e-03  -1.2926445173290343e-01  -1.5374467056443994e-01  -1.3855247929750217e-02  2.1257586500733633e-01  2.0155649503104253e-01  -1.0202399199526964e-02  -1.5162422468060364e-03  -1.6325748180285170e-02  1.1040351355785880e-01  1.2318156226004463e-01  -4.8699262800940113e-02  2.3343157960987856e-01  -7.8201458366327872e-02  -1.1911620571958857e-01  1.8908934743969091e-01  2.2025017890387608e-01  1.9777787678588490e-01  6.2049621202481475e-02  9.7378187874566965e-02  -5.6891034824214329e-02  -2.1829772069375092e-01  -2.3045812437268998e-01  2.0479074810994171e-02  1.3196294661211683e-01  1.6899881130724745e-01  -1.7205352928528744e-01  3.1076061385747039e-01  1.2502265570291388e-01  3.2634320933835094e-02  2.0619102112026166e-01  -1.0694117610073267e-01  2.3457108033554958e-01  -3.7696899393371439e-02  -3.2692931415246401e-02  -1.5221712622412706e-01  -2.8864930778110809e-02  -3.6808908537460473e-02  -4.2069210958493447e-02  2.0454978221393272e-01  4.1705239088932131e-03  5.5755986765879804e-02  3.4449490054902665e-02  4.3427326029563069e-02  2.2290489082738334e-02  2.6870964381671575e-01  -3.5544056102095621e-02  -6.6567520745533321e-02  -1.6838724566819849e-01  2.3900027129481607e-01  1.1379213674458291e-01  -4.2369324027673926e-02  -1.4052245727135762e-01  9.8738856997233129e-02  3.5294263040641205e-02  2.2670517828841200e-01  -2.9128661501389895e-02  1.3933234890367652e-01  3.7136167815194847e-02  1.8778948432557901e-01  -1.3353873545937053e-01  8.7923796389580547e-02  -1.2596373328308119e-01  2.5574139486679959e-01  9.4960773095175977e-03  -3.0760161136898674e-02  2.9883729168561950e-02  2.8407759775772023e-01  -8.1056705273499993e-02  -3.7901978097932837e-01  -7.7199777737696554e-02  -2.7797436249571157e-02  -4.5715849316768614e-02  -3.8493367283041263e-01  -1.2955333109150596e-01  -6.2974526834985875e-02  2.0147737265237567e-02  1.3010062215662144e-01  2.0743860536608236e-01  2.1168637767637441e-01  -1.2920266483369963e-01  -5.7350397970716192e-02  1.0802821417153495e-01  3.3306835219901177e-04  3.2462556016602397e-02  2.5499099563213706e-01  -1.5252038411997135e-01  -1.8712950066369435e-01  2.1164466735408835e-01  3.9530981939196012e-02  -1.0040695270321329e-01  9.6525554049492590e-02  -2.8275383767732785e-02  -2.4982856342418108e-01  -2.2126503066277914e-01  -2.6311734994230601e-01  1.1281362686522346e-01  -2.9779420782346421e-02  -3.0323462229669390e-02  -3.1163011299163867e-01  -1.5844028359456788e-01  -1.4700000862312804e-01  -8.9469921901667027e-03  -5.4349122968532317e-02  2.2648538560446058e-01  -2.9829170822889672e-01  2.9259369320577121e-02  8.7075016874333500e-02  1.2305392121202653e-01  -1.3326256173191953e-01  1.6562140964489216e-01  1.3191639696067448e-01  -1.6636282343477182e-01  1.6739154390903888e-01  6.0283056245311807e-02  -1.9964796240644808e-01  1.3322150773804772e-01  -1.2802448863373613e-02  1.6429702703846280e-01  1.6885779253188651e-01  1.0814792438885005e-02  1.1733272596020070e-01  9.3028374834712171e-02  -2.0501174268352040e-01  2.0698385230834859e-01  -4.9876052126761147e-02  1.2751327807442689e-01  -1.8218150645719780e-01  1.0765160842800678e-02  -1.5489675708688861e-02  1.3342537974007765e-01  1.7021486760742818e-01  3.3500669646740829e-03  -7.3037345466369155e-02  -1.6505013177461926e-02  3.8070741805814441e-02  8.8234619658910038e-02  -1.7981798492281664e-01  -3.9400442227015019e-02  -2.6117684983083234e-01  -6.6010414286355984e-02  1.6642640701736727e-01  -5.6958752606084143e-02  -3.8556875759186530e-02  2.5754282037944187e-01  1.8982052628341275e-01  -8.8343905753547156e-02  2.8261096818510723e-01  -6.7836181536779477e-02  -2.2760507774035388e-01  -1.3145082155492621e-01  -7.1756003117902853e-02  1.6094796889536363e-02  1.9819363282602454e-01  -1.0822251593581904e-01  2.2478854590944719e-01  -7.0467596016773271e-02  -1.0179892697902464e-01  4.4979572015876643e-02  2.2172748568437098e-01  -1.0037160057041430e-02  8.9904065943935296e-02  1.7186348749211505e-01  -9.0194933486231851e-02  9.0615891063655654e-02  8.3409923459554017e-02  8.4877176242582397e-02  -7.5618259715921940e-02  -1.6553593166812253e-02  -6.1696210393218501e-02  1.9652316049929558e-01  2.6781085929582432e-01  1.3053343998850600e-01  2.6325601818392846e-01  6.2375134290872956e-02  -4.3999246381454457e-02  -6.6870679881872435e-03  -2.5929180765136040e-01 