<?xml version="1.0"?>
<VTKFile type="UnstructuredGrid"  version="0.1"  >
<UnstructuredGrid>
<Piece  NumberOfPoints="4820" NumberOfCells="9262">
<Points>
<DataArray  type="Float64"  NumberOfComponents="3"  format="ascii">0.004357787137382907 0.04980973490458728 0  3.061616997868383e-18 0.05 0  -0.004357787137382901 0.04980973490458728 0  -0.004357787137382912 -0.04980973490458728 0  -9.184850993605149e-18 -0.05 0  0.004357787137382894 -0.04980973490458728 0  -0.2 -0.2 0  0.55 -0.2 0  2 -0.2 0  2 0.21 0  0.55 0.21 0  -0.2 0.21 0  0.002180969358710071 0.04995241107951016 0  -0.002180969376377175 0.04995241107873878 0  -0.00218096936205605 -0.04995241107936408 0  0.002180969376762267 -0.04995241107872198 0  -0.00681459716460041 0.04953343583362881 0  -0.009254746165878699 0.04913603233275104 0  -0.01167226821331763 0.04861849601495686 0  -0.01406125270101674 0.04798209220613614 0  -0.01641585879600313 0.04722837685110179 0  -0.01873032971283131 0.04635919271135586 0  -0.02099900679895535 0.04537666485604058 0  -0.02321634335656028 0.04428319547131056 0  -0.02537691821523419 0.04308145798249308 0  -0.02747544897576464 0.04177439052314415 0  -0.0295068049360126 0.04036518874560236 0  -0.03146601963036187 0.03885729800979068 0  -0.03334830296690066 0.03725440496408185 0  -0.03514905295182857 0.03556042852089316 0  -0.03686386691867947 0.03377951029547187 0  -0.03848855232085789 0.03191600445301051 0  -0.04001913696023074 0.02997446708380811 0  -0.04145187870654155 0.02795964505672717 0  -0.04278327464009846 0.02587646442367869 0  -0.04401006963121561 0.02373001835346012 0  -0.04512926428658137 0.02152555469556806 0  -0.04613812228218922 0.0192684631528764 0  -0.04703417705848439 0.01696426209509693 0  -0.04781523785065199 0.0146185850644164 0  -0.04847939503850856 0.01223716702101564 0  -0.04902502482533359 0.009825830289366174 0  -0.04945079319725205 0.00739047036139188 0  -0.04975565919278197 0.004937041451287537 0  -0.04993887744399172 0.002471541954727039 0  -0.05000000000000002 -2.179027782864273e-10 0  -0.04993887742290181 -0.002471542380860383 0  -0.04975565915220143 -0.004937041860259632 0  -0.04945079313853181 -0.007390470754298181 0  -0.04902502474990915 -0.009825830665689136 0  -0.04847939494791073 -0.01223716737993267 0  -0.04781523774597484 -0.01461858540679994 0  -0.04703417694176702 -0.01696426241870103 0  -0.04613812215449838 -0.01926846345863071 0  -0.04512926414810409 -0.02152555498589172 0  -0.04401006948618459 -0.02373001862243695 0  -0.04278327448542859 -0.02587646467940464 0  -0.04145187854660255 -0.0279596452938465 0  -0.04001913680095092 -0.02997446729646378 0  -0.03848855215910903 -0.03191600464806871 0  -0.03686386675419343 -0.0337795104749769 0  -0.03514905278746659 -0.03556042868335375 0  -0.0333483028093871 -0.0372544051050802 0  -0.03146601947545011 -0.03885729813523576 0  -0.02950680478964417 -0.04036518885259716 0  -0.02747544883924331 -0.04177439061293563 0  -0.0253769180845661 -0.04308145805946247 0  -0.02321634324304243 -0.04428319553082456 0  -0.02099900669895044 -0.04537666490231995 0  -0.01873032963061061 -0.04635919274457518 0  -0.01641585872377311 -0.04722837687620784 0  -0.01406125264610136 -0.04798209222222922 0  -0.01167226817214395 -0.04861849602484179 0  -0.009254746140787012 -0.04913603233747704 0  -0.006814597153124481 -0.04953343583520761 0  0.006814597163087254 -0.04953343583383697 0  0.009254746162416328 -0.04913603233340317 0  0.01167226820749043 -0.04861849601635584 0  0.01406125269526824 -0.04798209220782076 0  0.01641585878869484 -0.04722837685364205 0  0.01873032970478165 -0.04635919271460813 0  0.02099900678940205 -0.04537666486046157 0  0.02321634334324823 -0.04428319547828967 0  0.02537691819928517 -0.04308145799188777 0  0.02747544895679411 -0.04177439053562125 0  0.02950680491571239 -0.04036518876044175 0  0.03146601960788315 -0.03885729802799359 0  0.03334830294823126 -0.03725440498079377 0  0.03514905293079007 -0.03556042854168828 0  0.03686386690162479 -0.03377951031408381 0  0.03848855230703181 -0.03191600446968382 0  0.04001913694627814 -0.02997446710243633 0  0.04145187869083342 -0.02795964508001545 0  0.04278327462632659 -0.02587646444644864 0  0.04401006962056583 -0.02373001837321138 0  0.04512926427712953 -0.02152555471538427 0  0.04613812227399118 -0.01926846317250652 0  0.04703417705106056 -0.01696426211567986 0  0.04781523784312168 -0.01461858508904696 0  0.04847939503319636 -0.01223716704206073 0  0.04902502482144694 -0.009825830308758294 0  0.04945079319422288 -0.007390470381660498 0  0.0497556591909245 -0.004937041470007301 0  0.04993887744294273 -0.002471541975922472 0  0.05000000000000002 1.960026680888904e-10 0  0.04993887742406512 0.002471542357355427 0  0.0497556591543939 0.004937041838163785 0  0.04945079314184119 0.007390470732154637 0  0.04902502475403982 0.009825830645079567 0  0.04847939495309415 0.01223716735939779 0  0.04781523775084436 0.01461858539087247 0  0.04703417694693356 0.01696426240437658 0  0.04613812215952091 0.01926846344660432 0  0.04512926415455419 0.02152555497236883 0  0.04401006949386337 0.02373001860819578 0  0.04278327450092428 0.0258764646537846 0  0.04145187856220046 0.02795964527072164 0  0.04001913681616228 0.02997446727615497 0  0.03848855217730672 0.03191600462612355 0  0.03686386677147228 0.03377951045612033 0  0.03514905280168957 0.03556042866929533 0  0.0333483028196165 0.03725440509592335 0  0.03146601948352148 0.03885729812869969 0  0.02950680480117144 0.04036518884417076 0  0.02747544884918156 0.04177439060639914 0  0.02537691809390653 0.04308145805396053 0  0.02321634324922249 0.04428319552758454 0  0.02099900670813883 0.04537666489806784 0  0.01873032963827596 0.04635919274147818 0  0.01641585873206496 0.04722837687332573 0  0.01406125264532184 0.04798209222245766 0  0.01167226817007835 0.04861849602533769 0  0.009254746139683721 0.04913603233768484 0  0.006814597151967234 0.04953343583536681 0  -0.1875196675247935 -0.2 0  -0.1748316574073939 -0.2 0  -0.1619325191073485 -0.2 0  -0.1488187266915765 -0.2 0  -0.1354867190390691 -0.2 0  -0.1219328601465505 -0.2 0  -0.1081534589822707 -0.2 0  -0.09414476550972861 -0.2 0  -0.07990295838040007 -0.2 0  -0.06542416251428446 -0.2 0  -0.05070442829752772 -0.2 0  -0.03573975778997357 -0.2 0  -0.02052606446908414 -0.2 0  -0.005059208186730002 -0.2 0  0.0106650220181323 -0.2 0  0.02665090828184707 -0.2 0  0.04290281009001662 -0.2 0  0.05942514756265038 -0.2 0  0.07622242703544463 -0.2 0  0.09329921759985482 -0.2 0  0.110660176225582 -0.2 0  0.1283100240439488 -0.2 0  0.146253576648871 -0.2 0  0.1644957213272042 -0.2 0  0.1830414174264912 -0.2 0  0.2018957247245375 -0.2 0  0.2210637776854531 -0.2 0  0.2405507899571802 -0.2 0  0.2603620802338072 -0.2 0  0.2805030369240936 -0.2 0  0.3009791461642926 -0.2 0  0.3217959913512258 -0.2 0  0.3429592352388189 -0.2 0  0.3644746444814039 -0.2 0  0.3863480802046066 -0.2 0  0.4085854997083186 -0.2 0  0.4311929582382759 -0.2 0  0.4541766169094176 -0.2 0  0.4775427325114808 -0.2 0  0.5012976686781503 -0.2 0  0.5254479007761028 -0.2 0  0.5750000000714078 -0.2 0  0.6000000001173931 -0.2 0  0.6250000002059986 -0.2 0  0.6500000002385247 -0.2 0  0.675000000336103 -0.2 0  0.7000000003686291 -0.2 0  0.7250000004542437 -0.2 0  0.7500000005062106 -0.2 0  0.7750000005716368 -0.2 0  0.8000000006490264 -0.2 0  0.8250000006890297 -0.2 0  0.8500000007910944 -0.2 0  0.8750000008565204 -0.2 0  0.9000000009518555 -0.2 0  0.9250000010408349 -0.2 0  0.9500000011343006 -0.2 0  0.9750000012251494 -0.2 0  1.000000001296183 -0.2 0  1.0250000013646 -0.2 0  1.050000001466665 -0.2 0  1.075000001557888 -0.2 0  1.100000001673038 -0.2 0  1.125000001762017 -0.2 0  1.150000001851744 -0.2 0  1.175000001947827 -0.2 0  1.200000002046153 -0.2 0  1.225000002155695 -0.2 0  1.25000000221813 -0.2 0  1.275000002244301 -0.2 0  1.300000002154947 -0.2 0  1.325000002108962 -0.2 0  1.350000002019609 -0.2 0  1.375000001973624 -0.2 0  1.400000001884271 -0.2 0  1.42500000182707 -0.2 0  1.450000001748932 -0.2 0  1.475000001659579 -0.2 0  1.500000001570226 -0.2 0  1.525000001480872 -0.2 0  1.550000001391519 -0.2 0  1.575000001345534 -0.2 0  1.60000000125618 -0.2 0  1.625000001210195 -0.2 0  1.650000001120842 -0.2 0  1.675000001066632 -0.2 0  1.700000000985504 -0.2 0  1.725000000905871 -0.2 0  1.750000000850165 -0.2 0  1.775000000760812 -0.2 0  1.800000000714827 -0.2 0  1.825000000625473 -0.2 0  1.85000000053612 -0.2 0  1.875000000446767 -0.2 0  1.900000000357413 -0.2 0  1.92500000026806 -0.2 0  1.950000000178707 -0.2 0  1.975000000089353 -0.2 0  2 -0.1758823529236379 0  2 -0.1517647057870068 0  2 -0.1276470586430415 0  2 -0.103529411528254 0  2 -0.07941176439513059 0  2 -0.05529411724717925 0  2 -0.03117647008918309 0  2 -0.007058822960843009 0  2 0.01705882406928105 0  2 0.0411764710640091 0  2 0.06529411804247409 0  2 0.08941176503720205 0  2 0.11352941203193 0  2 0.137647059026658 0  2 0.1617647060111818 0  2 0.185882353005272 0  1.974999999927471 0.21 0  1.949999999833257 0.21 0  1.924999999782412 0.21 0  1.899999999688198 0.21 0  1.874999999637353 0.21 0  1.849999999543139 0.21 0  1.824999999448926 0.21 0  1.799999999354712 0.21 0  1.774999999260499 0.21 0  1.749999999166286 0.21 0  1.724999999082914 0.21 0  1.699999998977859 0.21 0  1.674999998902712 0.21 0  1.649999998789432 0.21 0  1.624999998688863 0.21 0  1.599999998581938 0.21 0  1.574999998495201 0.21 0  1.549999998413699 0.21 0  1.524999998318364 0.21 0  1.499999998273501 0.21 0  1.474999998238357 0.21 0  1.449999998189755 0.21 0  1.424999998038714 0.21 0  1.399999997975905 0.21 0  1.37499999792992 0.21 0  1.349999997902628 0.21 0  1.324999997821126 0.21 0  1.299999997699994 0.21 0  1.274999997636438 0.21 0  1.249999997681301 0.21 0  1.224999997765794 0.21 0  1.199999997857764 0.21 0  1.174999997916835 0.21 0  1.149999998014039 0.21 0  1.124999998067875 0.21 0  1.09999999816508 0.21 0  1.074999998218916 0.21 0  1.049999998316121 0.21 0  1.02499999838865 0.21 0  0.999999998467161 0.21 0  0.9749999985209969 0.21 0 
[...]
<PointData  Scalars="pressure"> 
<DataArray  type="Float64"  Name="pressure"  format="ascii">-1.0807085583338032e+00  -5.6735643136878344e-01  -7.2604679124438298e-01  -1.3161124706559777e+00  -1.3886502114216432e+00  -6.4379520598396223e-01  4.6180675169399255e-01  2.0929907306357201e-01  0.0000000000000000e+00  0.0000000000000000e+00  3.5238684371436002e-01  5.6452357208692594e-01  -7.9405501192491124e-01  -4.7966875889815147e-01  -1.5687426858277467e+00  -1.0676650360559383e+00  -6.5601197353646334e-01  -6.6352099362084560e-01  -6.6316406599200295e-01  -6.5098081737665181e-01  -6.2633930219801259e-01  -5.8507055374880945e-01  -5.3004930387108207e-01  -4.6148387281472769e-01  -3.7541666419226799e-01  -2.7273023883369013e-01  -1.5651852911606745e-01  -3.0703303478353924e-02  1.0642418751864645e-01  2.5808941236569105e-01  4.1239599756730139e-01  5.7578972188817246e-01  7.3952810934218527e-01  9.0079188416261613e-01  1.0656797684674102e+00  1.2182743866624479e+00  1.3692691297360036e+00  1.5077655255955373e+00  1.6315937515586776e+00  1.7437608388386627e+00  1.8366306708472475e+00  1.9111957824473542e+00  1.9665357063004054e+00  2.0023947999427034e+00  2.0124744386391118e+00  2.0024251339086820e+00  1.9703648170276651e+00  1.9150925234744680e+00  1.8397615729327903e+00  1.7426800717455455e+00  1.6284791710296607e+00  1.4986345613475476e+00  1.3498903273839493e+00  1.1921443383683570e+00  1.0203103860717395e+00  8.3937065719712345e-01  6.5438341071762374e-01  4.6432165955847321e-01  2.7725608085963815e-01  9.0822402213725700e-02  -9.8219516181158650e-02  -2.6552199466677323e-01  -4.4331085083982025e-01  -5.9583608091635032e-01  -7.4391779685370441e-01  -8.7279779434194427e-01  -9.9470718628680166e-01  -1.0950182470132168e+00  -1.1835698194781159e+00  -1.2557350251780337e+00  -1.3089417009695286e+00  -1.3505782498138383e+00  -1.3737069593271307e+00  -1.3890947996002070e+00  -1.3843169713139676e+00  -7.4381124534259857e-01  -7.3313032295670955e-01  -7.1298299204551308e-01  -6.8907196336371190e-01  -6.6418188994951610e-01  -6.4095068419710299e-01  -6.1935730115731569e-01  -6.0085542949202175e-01  -5.8496691135763756e-01  -5.7236130237558880e-01  -5.6346066307820908e-01  -5.5722014299376010e-01  -5.5478083157982927e-01  -5.5516808742306434e-01  -5.5747358116484680e-01  -5.6171837896892141e-01  -5.6681745589659815e-01  -5.7215492164964765e-01  -5.7669781304054535e-01  -5.7983830745225207e-01  -5.8141791439661039e-01  -5.8027100630525563e-01  -5.7549851076408154e-01  -5.6889334502478950e-01  -5.5785347619808412e-01  -5.4411596839961829e-01  -5.2705002514193322e-01  -5.0797987253291566e-01  -4.8710705369660967e-01  -4.6577096097753723e-01  -4.4475708010025533e-01  -4.2427864753549926e-01  -4.0611144742683791e-01  -3.8965177913004995e-01  -3.7590512261771986e-01  -3.6493814006439429e-01  -3.5650104748566763e-01  -3.5024631874622825e-01  -3.4645261220093904e-01  -3.4537593902903274e-01  -3.4617705079294447e-01  -3.5009361936769584e-01  -3.5687259079463785e-01  -3.6633828570554788e-01  -3.7948477224210941e-01  -3.9407811288785616e-01  -4.1368808478406527e-01  -4.3499843107087155e-01  -4.5823088135919460e-01  -4.8380340544996536e-01  -5.1118634457361833e-01  -5.4074344781089556e-01  -5.7298822204729583e-01  -6.0868226974479811e-01  -6.4850559279558340e-01  -6.9259006592206085e-01  -7.4275846798358414e-01  -8.0188550953645110e-01  -8.6747299574816461e-01  4.6130761556065930e-01  4.6085953705707505e-01  4.5958049381583532e-01  4.5749006473085357e-01  4.5369212601800546e-01  4.4769209623588885e-01  4.3857544550991445e-01  4.2588092841801228e-01  4.0842011523069122e-01  3.8610272108213245e-01  3.5844946827808483e-01  3.2476084816795725e-01  2.8765724437478862e-01  2.4609723532223721e-01  2.0350115446325581e-01  1.6195885122920817e-01  1.2122176131995631e-01  8.6775812384638246e-02  5.6418874619687483e-02  3.2609742375031996e-02  1.5697756835760576e-02  5.0053662897295665e-03  1.5787053948777027e-04  2.3912513930768689e-03  1.1202668880738936e-02  2.7524789132349799e-02  5.1696318929916073e-02  8.5069877084318915e-02  1.3063612528947421e-01  1.8139424089006367e-01  2.3711044656778940e-01  2.8858528763291535e-01  3.3341893491710684e-01  3.6006562985405899e-01  3.7041544460913856e-01  3.6421543179537186e-01  3.4397193926521447e-01  3.2119843465008097e-01  2.9880334909643513e-01  2.7413285544990817e-01  2.4499797673814125e-01  1.7451259788537987e-01  1.5659937973227264e-01  1.6096357099036557e-01  1.9025395895295613e-01  2.3670212225035867e-01  2.8270720701521257e-01  3.1454354327125039e-01  3.2921173702962914e-01  3.2430405106066962e-01  3.0897830064176612e-01  2.8314208306975691e-01  2.4899450255325029e-01  2.1140606526048902e-01  1.6556436719453776e-01  1.1689970293934879e-01  6.5023745210436371e-02  2.1913542658708703e-02  6.1370853983037776e-03  2.5239037956114797e-02  7.5033380108256970e-02  1.3643339077026004e-01  1.9532371148090943e-01  2.3596435298904517e-01  2.5830928649639318e-01  2.6089082334994185e-01  2.4441869309137976e-01  2.0914483502243719e-01  1.6353455342168222e-01  1.0821843911589875e-01  5.4931042632133484e-02  6.7310618815736387e-03  -2.0773191333877977e-02  -3.2511769183937049e-02  -1.8819652244862550e-02  1.1325388477106414e-02  5.1496537632874526e-02  9.6987216224138736e-02  1.3614397550841512e-01  1.6413348210212722e-01  1.7986303387586711e-01  1.7867226207327885e-01  1.6333110800306064e-01  1.3684644322105280e-01  9.8367445902775061e-02  5.4008303957150915e-02  6.8911867313764651e-03  -3.5145955149527550e-02  -6.2700276504092281e-02  -7.6487732907668624e-02  -7.3849830892013926e-02  -5.6460440433236531e-02  -3.1025795549374208e-02  -4.6955601079726808e-03  1.6638800852730340e-02  2.7522774146857151e-02  2.7480243095521453e-02  1.7511042175032739e-02  0.0000000000000000e+00  0.0000000000000000e+00  0.0000000000000000e+00  0.0000000000000000e+00  0.0000000000000000e+00  0.0000000000000000e+00  0.0000000000000000e+00  0.0000000000000000e+00  0.0000000000000000e+00  0.0000000000000000e+00  0.0000000000000000e+00  0.0000000000000000e+00  0.0000000000000000e+00  0.0000000000000000e+00  0.0000000000000000e+00  0.0000000000000000e+00  -9.6360695276797616e-03  -1.2490983743077243e-02  -3.6012250259929907e-03  1.5938434462503613e-02  4.3667022372967275e-02  7.3068028120261974e-02  1.0019459170862303e-01  1.1990617532844204e-01  1.3004309243916026e-01  1.2881749821306357e-01  1.1658563542464971e-01  9.0604620770892041e-02  5.5760634624299386e-02  1.8693567565819434e-02  -1.5669049340225682e-02  -3.5572304303237746e-02  -4.1966673082908114e-02  -2.4615633378234587e-02  1.0372223732156209e-02  5.3678079825156405e-02  1.0063505232939725e-01  1.4579297957367934e-01  1.7983391071307747e-01  2.0427388162475457e-01  2.1483977858367381e-01  2.1202304102601438e-01  1.9595259351050043e-01  1.6336594886164166e-01  1.2342060559330141e-01  7.2616977091974247e-02  1.9874084367748152e-02  -1.6876439371282456e-02  -2.9656419296162528e-02  -1.0800530769898092e-02  3.4647846912360274e-02  1.0321748002386705e-01  1.7122932893778253e-01  2.3204972500361915e-01  2.8157653093018298e-01  3.1539565308197293e-01  3.3084640042730568e-01  3.2498374882527142e-01  2.9209431047260337e-01  2.3577963379101349e-01  1.5924074106004354e-01  9.5270827761290464e-02  5.5997360718434828e-02  5.3662489187553251e-02  8.3202799518326639e-02  1.2618625198553121e-01  1.7277678856530951e-01  2.1722003617399760e-01  2.5518486144791913e-01  2.8935483651112265e-01  3.1802029594830394e-01  3.4244800447265866e-01  3.5624524050152923e-01  3.3118846294821558e-01  2.9630622361867570e-01  2.4725430201412080e-01  1.9982771883703918e-01  1.5302760945796232e-01  1.1173269082036381e-01  7.9568374885201992e-02  6.1573242841297851e-02  5.5997691128854381e-02  6.3746486746053932e-02  8.4282161298665115e-02  1.0853355320554861e-01  1.3362734469015061e-01  1.5408529746833688e-01  1.7023742967919797e-01  1.8091784766774066e-01  1.8877698416950986e-01  1.9614562717416092e-01  2.0226199755531438e-01  2.1039656384416747e-01  2.1991522125371837e-01  2.3232822447801021e-01  2.5018302042826396e-01  2.7093363359672845e-01  2.9603806360290669e-01  3.2461127488003849e-01  3.5515847863551764e-01  3.8630452358278133e-01  4.1667894236929687e-01  4.4465192143671084e-01  4.6934687279732457e-01  4.9107661789897250e-01  5.0884136975844019e-01  5.2316838752238071e-01  5.3491372053855368e-01  5.4386798099287936e-01  5.5083813205813825e-01  5.5604222386386393e-01  5.5974809890982780e-01  5.6222468268095194e-01  5.6370860104037623e-01  5.6449927063938310e-01  5.6571468325210650e-01  5.6934308075890339e-01  5.7637463931200539e-01  5.8751929292555938e-01  6.0344541952775033e-01  6.2417874140980301e-01  6.4945302553394169e-01  6.7864681939319005e-01  7.1078513302872204e-01  7.4373292298627958e-01  7.7597787783038386e-01  8.0466911278218778e-01  8.2703397246584820e-01  8.4197860238346467e-01  8.4659839142148841e-01  8.4062904514958658e-01  8.2353422393406073e-01  7.9677229435196817e-01  7.6181679327782070e-01  7.2216620554514233e-01  6.7939433366689805e-01  6.3655844566775199e-01  5.9598396024164324e-01  5.5975439067305255e-01  5.2881152314443147e-01  5.0402403577778399e-01  4.8550637716073503e-01  4.7284472891784218e-01  4.6565695921483297e-01  4.6209551578012953e-01  4.6155160683435809e-01  2.1060664935057144e-01  2.0717630013083563e-01  1.9758497199339869e-01  1.7027969969442089e-01  1.1764198457795111e-01  4.1994678390122636e-02  -1.9260371688792102e-02  -2.4755007094660320e-02  2.7705254077342780e-02  1.2330443578627411e-01  2.3281804933081324e-01  3.2442972783475155e-01  3.6346590962345759e-01  3.7651315946856778e-01  3.6963512937065707e-01  3.5579505788842436e-01  6.0761703203590735e-02  -9.7825319182791512e-02  -5.7853995681265584e-02  -1.1209074012637064e-02  -6.0614337181859740e-02  8.3616321703390854e-04  1.7603874124826661e-02  6.4680525435488093e-02  -2.2844177181202879e-02  -2.2107751630991168e-01  1.8936669665758718e-01  6.9327874748469909e-02  9.2389208075686874e-02  -6.8200453526126775e-02  1.2948663014015768e-01  1.7347590697062848e-02  5.9266873356903031e-05  2.2003658040077320e-01  -1.4444070077280566e-01  1.6133193895790654e-02  -1.6258881643623946e-01  2.1513080677380891e-01  2.2672504710068636e-01  -1.5094049937006765e-01  -8.1982248822233622e-02  3.2667054696719922e-01  2.8841041845282428e-01  -1.6350422492644281e-01  3.1955650527132944e-02  -1.6308842318195357e-01  1.5628512794133129e-01  3.4080632853261672e-01  -3.1458248377487447e-01  -2.5504998279622090e-02  -6.6571644030858773e-03  -8.2598527962279601e-03  3.3383893194706667e-03  -3.1984523423101298e-02  -2.0835534972927196e-02  1.2790951921390908e-01  -2.6255976222035023e-02  -4.8269103690170550e-03  2.9186578964573657e-03  1.8463930191069788e-01  -2.8324067339206942e-03  2.2258556377491866e-02  3.3085504777329822e-01  4.9951154487094952e-02  7.2344966623708110e-02  -2.8546304957206309e-02  1.7309936182474786e-01  1.6077897300050870e-01  1.7250695086978018e-01  1.8967041034951324e-01  -8.4136497321967083e-02  -3.3925404291078411e-02  9.0752008160045236e-02  2.9863799226683724e-01  2.2291333055916809e-01  1.9027533499399957e-01  9.8641232394079195e-02  -1.4093601441891018e-01  -7.6345378715442336e-02  -5.1282534508177859e-02  2.8929894359181918e-01  1.2904591443951610e-01  -1.3748562099002246e-01  -1.1883131029382492e-01  -2.4292890521084988e-03  1.3080136761035760e-01  4.2016771576885756e-02  1.2228534742513809e-01  1.5488127850539207e-01  2.0953692469716417e-01  -5.4245382000280853e-02  3.0857486230579978e-01  9.0664340441275471e-02  8.3633329441664128e-02  -2.5774176688991379e-01  4.7688228020477466e-02  -4.8156719697020720e-02  -4.3083570908774668e-02  6.0773276353303339e-02  -4.8298005126722837e-01  1.7634105999420355e-01  -9.5424127554320046e-02  -9.6042469306477071e-02  -7.7679076635020355e-02  1.8438245535336792e-01  -1.2139334590596056e-01  -1.2773132946286775e-01  8.8696083495112141e-02  6.3883884138405442e-02  -1.3982682311139355e-01  1.1949663769398444e-01  1.2678689519417488e-01  -2.0115804772459164e-01  8.1080276406912524e-02  2.4174052786676997e-01  -1.3497786951562762e-01  1.8815874364282739e-01  -7.4020416139790990e-02  -6.2447412147400849e-02  2.2888828427062116e-01  2.1209760973187697e-01  4.1767392739183139e-02  -1.7394996888185726e-02  -1.7872847578981294e-01  5.8298929177477518e-02  3.4648389688906556e-01  1.6610785915787676e-01  2.7732308801001992e-01  -7.8124698756663016e-02  5.5903812458547392e-02  -9.8483247068302665e-02  1.4447521231323887e-01  3.3519668748759790e-01  7.2956508376774212e-02  1.1070414919651227e-02  -1.3281198775622419e-01  1.0918987614154206e-01  1.7367660502436372e-01  2.7757400908590335e-01  1.1228789006526907e-02  2.5598724919449194e-02  1.9183139708594302e-01  9.5602593388150650e-02  1.2880273336729514e-01  2.0506514520521130e-02  -1.1973634738527433e-01  -1.1275405013233214e-01  6.3012603696920785e-03  5.1510146879500479e-02  5.9471187710466528e-02  -3.3336943758482708e-02  -4.0097002987794488e-03  -2.0291057813698879e-01  2.6399499732519160e-01  -2.4175561673536392e-01  2.1743383458627014e-01  6.4916102149701657e-02  -7.6102573673309873e-02  3.2686707897340733e-01  -7.1818259192166375e-02  1.4840122032954900e-01  -2.0918995944629706e-01  8.7359341742268046e-02  -3.9187866815956540e-02  2.7485607314711091e-01  -5.8684006381845510e-01  9.7582148597241576e-03  2.3120135958914501e-01  1.9529389319756987e-01  -3.9679807617937213e-02  1.9150278100127965e-01  2.3444702713791352e-01  -1.8752771543580644e-02  9.2254875376810888e-02  9.2716532957109063e-02  1.0771024005154338e-01  -2.5104638520739736e-01  1.3674550649739320e-01  -1.6212449737719476e-02  -1.3503144462466586e-02  2.1049602756360111e-01  -8.3498170006874994e-03  1.9216386443675246e-01  8.6802858662906740e-02  3.3904461456013030e-01  -7.7102026893546893e-02  -7.6342335757094175e-03  2.6493090933091129e-01  3.1158510795273733e-02  -4.6787530174051517e-02  -1.2139231083292655e-01  1.2540787608242598e-02  8.6109341929784542e-04  -4.0486124655624713e-02  -1.1584146058646175e-01  -1.0577655721610175e-01  3.6027312360605668e-01  3.1308042437913720e-02  1.4617272444753762e-01  -2.1652818881608627e-02  1.7151362313046301e-01  -3.5816768341646869e-02  -1.2004421745211317e-01  1.3611610506979530e-01  6.7953119981716201e-02  -9.6979000280669567e-02  3.4987425411907268e-02  2.9981653488817497e-02  -4.6841128963291935e-02  1.3179242216801096e-01  3.0979812257142535e-02  -7.0176804261882525e-02  -2.5340198448449580e-01  -3.5731193225847118e-04  3.0151511771702669e-02  -8.2976013847408964e-02  6.7633273708658445e-02  1.0219163762735628e-01  -7.9205991996932387e-02  3.3871623561523329e-01  1.5041234174554272e-01  1.2149512770703425e-01  6.2151929807181053e-02  5.9960268158023911e-02  7.3374594927158032e-03  1.1494242165337511e-01  -2.0161380506449111e-01  -8.2803403524915817e-02  2.2503871158226624e-01  1.8522993451754521e-01  -1.0951310249782299e-01  -5.8344640457570658e-02  1.2274869682492014e-01  -1.2900886370943099e-01  2.7339217367657331e-01  5.8219950764801166e-02  -4.7838333150788843e-02  -2.2511643843996368e-01  -6.2412939822789864e-04  9.0943455172999815e-02  8.7590235865936200e-02  8.8629282317506358e-02  1.9295186985385934e-01  3.8953777745179274e-02  1.2457430705630053e-01  -2.1779420203941486e-02  1.4225137508773236e-01  -2.3023777697055697e-02  4.3869182248334684e-04  -2.2965583386792429e-02  2.1350579581157564e-01  1.6202823497230771e-03  1.5845256638800037e-01  2.5653734738933731e-01  3.3791869094025831e-02  2.6167585302962115e-01  1.4729726491092615e-01  5.0573956678162765e-02  -5.8829056511852017e-02  2.0090797863358076e-01  4.5504774790804704e-02  -1.1254504532267105e-01  -1.2773624910888701e-01  -1.7273531681846838e-02  2.2681924652187355e-01  2.5094537790107652e-01  3.0792549898336744e-02  2.5290389169419322e-02  5.3399579857980863e-02  2.2767580812788894e-02  1.2774343223735546e-01  2.8019912545690286e-02  3.0090705940958717e-01  -5.5572656420490411e-02  -7.4982485239362448e-02  2.2129527303213736e-01  1.5411555575742389e-01  3.1749160882936961e-01  3.1477820356931328e-02  1.4484026529455771e-01  -6.3462251465032423e-03  -1.3763824837223504e-01  -7.7920441986889244e-02  8.2356968719522583e-02  2.0200099750558320e-01  -5.0707130501060134e-02  8.3052687361376887e-02  3.4956973253629919e-01  1.6610144996724646e-01  -7.9699518472251665e-02  2.1797377509141774e-01  -2.1724902310575026e-01  2.8734894251720999e-01  1.9175753921505366e-03  2.7867234732029275e-02  -1.3883436993537407e-01  -3.9663455533864168e-02  -1.9252212608912758e-01  -3.6273163486259870e-02  2.3967977234669749e-01  7.2096699571045919e-03  1.2202931800429979e-01  1.1071875998673311e-01  4.2434955474151895e-02  1.1179522894757532e-01  3.7301674487971459e-01  -3.6235056440796880e-02  -3.5254131740612003e-02  -6.3866718112254653e-02  2.8947309792059833e-01  1.4623213273141361e-01  -2.9528545494565950e-02  -4.8794479602217417e-02  2.2614624540849815e-01  -3.2655015054237853e-02  2.8128671018634471e-01  7.4252996063442933e-02  1.7329065730535884e-01  4.2108493172632148e-02  1.8985846251465027e-01  -5.9543353281209278e-02  7.5921465882278313e-02  -5.6382440764762627e-02  3.2192784276187469e-01  1.3613642242650609e-01  -1.1391255918650681e-01  1.3377100786350693e-01  3.5626388072543785e-01  -1.5460636990067655e-01  -2.8860632000807807e-01  -4.5090826399193235e-03  -6.3109072122273915e-02  5.1160785628479248e-02  -7.5405823597141972e-02  -5.3568456890306572e-02  -9.7564040764934939e-02  7.5445802626821386e-03  1.5648761008308551e-01  1.1687972205906537e-01  2.5997148727371716e-01  -1.7135312610103809e-01  -8.5809418005774060e-02  4.6127140686893692e-02  -5.8673490255219313e-02  8.1696091379737809e-02  2.6931336297747299e-01  -4.5501296022672895e-02  -2.2410476953634378e-01  2.5088895645114545e-01  1.5721621475632705e-01  3.7142208050608888e-02  9.0058415550279478e-02  -1.8015396163545633e-03  -1.4944508884885266e-01  -2.0754233681652079e-01  -1.0743464106893602e-01  6.9007066179273116e-02  1.0207313514398922e-01  -3.1427647399818993e-02  -4.7073377427211999e-01  -4.9358127577946144e-02  -2.8621883895423490e-02  3.0299354076677087e-03  -1.0545696675313937e-02  2.0976103406197497e-01  -2.0276717776887904e-01  1.9311142283646329e-02  -1.8552218556632184e-02  1.8448795038563093e-01  -5.3140305850182971e-02  1.8836219623188769e-01  1.7974997856394459e-01  -2.3800558855569853e-01  1.5711553171382664e-01  4.9031888587463747e-02  -1.9223560901570647e-01  8.5569588343517883e-02  6.2363979818331590e-02  1.1268415914509491e-01  1.8668600138373456e-01  1.3019644365981978e-01  1.9521707392032817e-01  5.1585479082921645e-02  -5.6589641227890752e-01  2.3112764524813553e-01  -1.1787735550094732e-03  9.6411484858965654e-02  -1.1143999020087125e-01  2.2619874163426923e-02  8.1056216747408621e-02  1.7635890504451363e-01  2.0441373576345953e-01  6.4625982578899302e-02  -6.5285770640781754e-02  9.7996832204429271e-02  9.3310346936102823e-02  2.3136288364887788e-02  -1.1271690703798716e-01  -5.3315502077466381e-02  -1.7686347708710543e-01  -9.0890831993684404e-02  1.6637297643330146e-01  6.3983908295621224e-03  -4.6366649840718033e-02  3.0534891991983015e-01  1.8509048201105632e-01  3.3184179634513963e-02  3.3846749305989710e-01  -1.7761990402281808e-01  -1.3934231425842411e-01  -1.0629976729830047e-01  -3.4892387399519442e-02  3.8588251152638926e-02  2.1902949456381848e-01  -1.0379123631034974e-01  2.6738194063243176e-01  -7.5611550422108653e-02  -3.3564518072542723e-02  5.0643207869414210e-02  2.8438656521831179e-01  -7.9423116478824760e-02  1.2785775819835118e-01  2.9836373371097991e-01  -1.2086110781750389e-02  4.3567175092560369e-02  4.1403212256160248e-02  1.9095344789785643e-01  -6.4744568257283128e-02  4.7049800043669064e-02  1.4566489922262810e-02  2.6884634624460296e-01  2.9434661980451676e-01  1.9127299932559966e-01  3.3344650287312777e-01  1.3057920698896119e-01  -8.3758704987717744e-02  1.0486775448876456e-01  -1.0890601362885990e-01  5.8940193564094925e-02  -1.3147229124